                         Program Version 5.0.0 -  RELEASE  -
|  1> ! RI BP86 def2-SVP def2/J D3BJ TIGHTSCF Opt
|  2> ! CPCM
|  3> # memory
|  4> %maxcore 32000
|  5> # smd solvation model
|  6> %cpcm
|  7> smd true
|  8> SMDsolvent "DMF"
|  9> end
| 10> # triple zeta basis on Co
| 11> %basis newgto Co "def2-TZVP" end end
| 12> # constrain CA and CB atoms of diHis (determined by backbone helix)
| 13> # and constrain Co in PCS defined position
| 14> %geom
| 15> Constraints
| 16> {C 0 C}
| 17> {C 1 C}
| 18> {C 13 C}
| 19> end
| 20> end
| 21>  * xyzfile 0 1 ../32Nd-28Ne-nta-co-min.xyz
| 22>
| 23>                          ****END OF INPUT****
 Total Charge           Charge          ....    0
 Multiplicity           Mult            ....    1
 Number of Electrons    NEL             ....  228
Dispersion correction           -0.110303197
FINAL SINGLE POINT ENERGY     -2730.323047447351
Dispersion correction            ... done
Dispersion correction           -0.110260833
FINAL SINGLE POINT ENERGY     -2730.359666699615
Dispersion correction            ... done
Dispersion correction           -0.109893737
FINAL SINGLE POINT ENERGY     -2730.383725431750
Dispersion correction            ... done
FINAL SINGLE POINT ENERGY     -2730.401072279945
FINAL SINGLE POINT ENERGY     -2730.415024240980
FINAL SINGLE POINT ENERGY     -2730.426760827466
FINAL SINGLE POINT ENERGY     -2730.437143729241
FINAL SINGLE POINT ENERGY     -2730.443949219150
FINAL SINGLE POINT ENERGY     -2730.448668255600
FINAL SINGLE POINT ENERGY     -2730.451896586779
FINAL SINGLE POINT ENERGY     -2730.459262582162
FINAL SINGLE POINT ENERGY     -2730.459266671568
FINAL SINGLE POINT ENERGY     -2730.459269280396
FINAL SINGLE POINT ENERGY     -2730.459271223822
FINAL SINGLE POINT ENERGY     -2730.459273501340
FINAL SINGLE POINT ENERGY     -2730.459276302825
FINAL SINGLE POINT ENERGY     -2730.459277888139
Dispersion correction            ... done
Dispersion correction           -0.108429689
FINAL SINGLE POINT ENERGY     -2730.459268319823
Dispersion correction            ... done
Dispersion correction           -0.108405880
FINAL SINGLE POINT ENERGY     -2730.459281153019
Dispersion correction            ... done
                    ***********************HURRAY********************

CARTESIAN COORDINATES (ANGSTROEM)
---------------------------------
  Co    -6.428000    1.690000  -12.016000
  C     -1.633000    1.747000   -8.169000
  C     -1.343518    1.641713   -9.671806
  C     -2.539043    1.573305  -10.584564
  C     -3.892939    1.855275  -10.446721
  N     -2.395505    1.176095  -11.909508
  C     -3.598194    1.211813  -12.532383
  N     -4.528872    1.620068  -11.663944
  H     -0.720558    0.741799   -9.868407
  H     -0.714142    2.505115   -9.986079
  H     -1.513622    0.887536  -12.345771
  H     -4.453767    2.201453   -9.574256
  H     -3.780465    0.920184  -13.570603
  C     -6.816000   -0.935000   -5.985000
  C     -6.929265   -0.140605   -7.312494
  C     -6.433763   -0.874978   -8.537383
  C     -5.878649   -2.151062   -8.563452
  N     -6.467376   -0.375816   -9.849314
  C     -5.946748   -1.331749  -10.622298
  N     -5.580529   -2.414420   -9.885780
  H     -6.373814    0.819512   -7.219348
  H     -7.988419    0.158728   -7.476982
  H     -5.680870   -2.878388   -7.770143
  H     -5.809323   -1.259678  -11.708084
  H     -5.158324   -3.274384  -10.248514
  O     -6.732712    2.910770  -10.584090
  O     -6.325150    2.964929  -13.352134
  O     -6.334573    0.277782  -13.288034
  N     -8.368493    1.674982  -12.233723
  O     -7.653384   -1.100513  -14.479470
  O     -7.553643    4.189542  -14.752119
  O     -8.285650    3.304211   -9.004287
  C     -7.480659    3.385805  -13.827573
  C     -7.931689    2.776113  -10.055648
  C     -7.506999   -0.203175  -13.655456
  C     -8.869118    1.837672  -10.838085
  H     -8.825885    0.848971  -10.340652
  H     -9.914983    2.205640  -10.824233
  C     -8.705677    0.376965  -12.884681
  H     -9.585900    0.480756  -13.548384
  H     -8.958895   -0.358991  -12.095968
  C     -8.705909    2.853701  -13.089940
  H     -9.073679    3.676600  -12.444705
  H     -9.514735    2.602135  -13.802590
  H     -7.404406   -1.874879   -6.023055
  H     -7.199625   -0.326792   -5.142128
  H     -5.762505   -1.200889   -5.760200
  H     -2.224859    0.881315   -7.805713
  H     -2.199322    2.669516   -7.924702
  H     -0.682723    1.775401   -7.600457

 Multiplicity           Mult            ....    1
 Number of Electrons    NEL             ....  228
 Basis Dimension        Dim             ....  533

ORBITAL ENERGIES
----------------

  NO   OCC          E(Eh)            E(eV)
   0   2.0000    -276.226380     -7516.5019
   1   2.0000     -32.367727      -880.7706
   2   2.0000     -28.096295      -764.5391
   3   2.0000     -28.093227      -764.4556
   4   2.0000     -28.092452      -764.4345
   5   2.0000     -18.794823      -511.4331
   6   2.0000     -18.777327      -510.9571
   7   2.0000     -18.773099      -510.8420
   8   2.0000     -18.752399      -510.2787
   9   2.0000     -18.742905      -510.0204
  10   2.0000     -18.740084      -509.9436
  11   2.0000     -14.089867      -383.4048
  12   2.0000     -14.077535      -383.0692
  13   2.0000     -14.066594      -382.7715
  14   2.0000     -14.045946      -382.2096
  15   2.0000     -14.008023      -381.1777
  16   2.0000     -10.017982      -272.6032
  17   2.0000     -10.012291      -272.4483
  18   2.0000     -10.008984      -272.3583
  19   2.0000      -9.979261      -271.5495
  20   2.0000      -9.960939      -271.0509
  21   2.0000      -9.957201      -270.9492
  22   2.0000      -9.956078      -270.9187
  23   2.0000      -9.954491      -270.8755
  24   2.0000      -9.952259      -270.8147
  25   2.0000      -9.938250      -270.4335
  26   2.0000      -9.935676      -270.3635
  27   2.0000      -9.934358      -270.3276
  28   2.0000      -9.925734      -270.0929
  29   2.0000      -9.915909      -269.8256
  30   2.0000      -9.907211      -269.5889
  31   2.0000      -9.904652      -269.5193
  32   2.0000      -3.559344       -96.8547
  33   2.0000      -2.288445       -62.2718
  34   2.0000      -2.282197       -62.1017
  35   2.0000      -2.280435       -62.0538
  36   2.0000      -0.967949       -26.3392
  37   2.0000      -0.954988       -25.9865
  38   2.0000      -0.950931       -25.8761
  39   2.0000      -0.940474       -25.5916
  40   2.0000      -0.921306       -25.0700
  41   2.0000      -0.887186       -24.1416
  42   2.0000      -0.875586       -23.8259
  43   2.0000      -0.869778       -23.6679
  44   2.0000      -0.863093       -23.4859
  45   2.0000      -0.805712       -21.9245
  46   2.0000      -0.784545       -21.3486
  47   2.0000      -0.715643       -19.4736
  48   2.0000      -0.700987       -19.0748
  49   2.0000      -0.677464       -18.4347
  50   2.0000      -0.675611       -18.3843
  51   2.0000      -0.657324       -17.8867
  52   2.0000      -0.645449       -17.5635
  53   2.0000      -0.582409       -15.8482
  54   2.0000      -0.575952       -15.6724
  55   2.0000      -0.571441       -15.5497
  56   2.0000      -0.565554       -15.3895
  57   2.0000      -0.540584       -14.7100
  58   2.0000      -0.529973       -14.4213
  59   2.0000      -0.507313       -13.8047
  60   2.0000      -0.500837       -13.6285
  61   2.0000      -0.490238       -13.3401
  62   2.0000      -0.489082       -13.3086
  63   2.0000      -0.486281       -13.2324
  64   2.0000      -0.472388       -12.8543
  65   2.0000      -0.463834       -12.6216
  66   2.0000      -0.454200       -12.3594
  67   2.0000      -0.452300       -12.3077
  68   2.0000      -0.417879       -11.3711
  69   2.0000      -0.414324       -11.2743
  70   2.0000      -0.411131       -11.1874
  71   2.0000      -0.406965       -11.0741
  72   2.0000      -0.405923       -11.0457
  73   2.0000      -0.403048       -10.9675
  74   2.0000      -0.399722       -10.8770
  75   2.0000      -0.393517       -10.7081
  76   2.0000      -0.391129       -10.6432
  77   2.0000      -0.389340       -10.5945
  78   2.0000      -0.384769       -10.4701
  79   2.0000      -0.380975       -10.3669
  80   2.0000      -0.380141       -10.3442
  81   2.0000      -0.374274       -10.1845
  82   2.0000      -0.372676       -10.1410
  83   2.0000      -0.371125       -10.0988
  84   2.0000      -0.364951        -9.9308
  85   2.0000      -0.359688        -9.7876
  86   2.0000      -0.349330        -9.5057
  87   2.0000      -0.347004        -9.4425
  88   2.0000      -0.335624        -9.1328
  89   2.0000      -0.331127        -9.0104
  90   2.0000      -0.320410        -8.7188
  91   2.0000      -0.316881        -8.6228
  92   2.0000      -0.311805        -8.4846
  93   2.0000      -0.308506        -8.3949
  94   2.0000      -0.306537        -8.3413
  95   2.0000      -0.305062        -8.3011
  96   2.0000      -0.291286        -7.9263
  97   2.0000      -0.284078        -7.7301
  98   2.0000      -0.276533        -7.5248
  99   2.0000      -0.275595        -7.4993
 100   2.0000      -0.270859        -7.3705
 101   2.0000      -0.258985        -7.0473
 102   2.0000      -0.252596        -6.8735
 103   2.0000      -0.250182        -6.8078
 104   2.0000      -0.240999        -6.5579
 105   2.0000      -0.237506        -6.4629
 106   2.0000      -0.224155        -6.0996
 107   2.0000      -0.217698        -5.9239
 108   2.0000      -0.212550        -5.7838
 109   2.0000      -0.205926        -5.6035
 110   2.0000      -0.201406        -5.4805
 111   2.0000      -0.199989        -5.4420
 112   2.0000      -0.191724        -5.2171
 113   2.0000      -0.180458        -4.9105
 114   0.0000      -0.139899        -3.8068
 115   0.0000      -0.097964        -2.6657
 116   0.0000      -0.028261        -0.7690
 117   0.0000      -0.025439        -0.6922
 118   0.0000      -0.013394        -0.3645

MULLIKEN ATOMIC CHARGES
-----------------------
   0 Co:    0.046244
   1 C :   -0.083444
   2 C :    0.044421
   3 C :   -0.044176
   4 C :   -0.002310
   5 N :   -0.037050
   6 C :    0.161299
   7 N :   -0.196429
   8 H :    0.051132
   9 H :    0.060278
  10 H :    0.193892
  11 H :    0.044718
  12 H :    0.096459
  13 C :   -0.087227
  14 C :    0.035360
  15 C :   -0.109615
  16 C :   -0.048702
  17 N :   -0.214316
  18 C :    0.065546
  19 N :   -0.029089
  20 H :    0.044192
  21 H :    0.042169
  22 H :    0.047021
  23 H :    0.067267
  24 H :    0.187919
  25 O :   -0.258823
  26 O :   -0.229299
  27 O :   -0.282794
  28 N :   -0.349645
  29 O :   -0.247865
  30 O :   -0.232399
  31 O :   -0.257000
  32 C :    0.144474
  33 C :    0.129840
  34 C :    0.128891
  35 C :    0.105568
  36 H :    0.084864
  37 H :    0.074350
  38 C :    0.104652
  39 H :    0.076918
  40 H :    0.095932
  41 C :    0.103925
  42 H :    0.108752
  43 H :    0.087397
  44 H :    0.043669
  45 H :    0.043199
  46 H :    0.044808
  47 H :    0.047010
  48 H :    0.050633
  49 H :    0.047384
Sum of atomic charges:   -0.0000000

LOEWDIN ATOMIC CHARGES
----------------------
   0 Co:   -0.959112
   1 C :   -0.070076
   2 C :   -0.046394
   3 C :   -0.017728
   4 C :   -0.008840
   5 N :    0.119755
   6 C :    0.087728
   7 N :    0.135016
   8 H :    0.050188
   9 H :    0.052291
  10 H :    0.132777
  11 H :    0.044644
  12 H :    0.055930
  13 C :   -0.073446
  14 C :   -0.051367
  15 C :   -0.056556
  16 C :   -0.053270
  17 N :   -0.085476
  18 C :    0.017829
  19 N :    0.104462
  20 H :    0.041891
  21 H :    0.040955
  22 H :    0.042642
  23 H :    0.035832
  24 H :    0.126589
  25 O :   -0.022967
  26 O :    0.050903
  27 O :   -0.027614
  28 N :    0.126563
  29 O :   -0.217289
  30 O :   -0.199937
  31 O :   -0.221522
  32 C :    0.061389
  33 C :    0.052165
  34 C :    0.051088
  35 C :    0.034330
  36 H :    0.060677
  37 H :    0.048912
  38 C :    0.035071
  39 H :    0.052631
  40 H :    0.069064
  41 C :    0.039453
  42 H :    0.073145
  43 H :    0.059577
  44 H :    0.031573
  45 H :    0.036329
  46 H :    0.031776
  47 H :    0.033880
  48 H :    0.034958
  49 H :    0.039582

  Mayer bond orders larger than 0.100000
B(  0-Co,  7-N ) :   0.5870 B(  0-Co, 17-N ) :   0.1950 B(  0-Co, 25-O ) :   0.7880
B(  0-Co, 26-O ) :   0.9147 B(  0-Co, 27-O ) :   0.7500 B(  0-Co, 28-N ) :   0.6179
B(  0-Co, 30-O ) :   0.1040 B(  1-C ,  2-C ) :   1.1253 B(  1-C , 47-H ) :   0.9683
B(  1-C , 48-H ) :   0.9628 B(  1-C , 49-H ) :   0.9584 B(  2-C ,  3-C ) :   1.0623
B(  2-C ,  8-H ) :   0.9126 B(  2-C ,  9-H ) :   0.9093 B(  3-C ,  4-C ) :   1.4796
B(  3-C ,  5-N ) :   1.2266 B(  4-C ,  7-N ) :   1.2271 B(  4-C , 11-H ) :   0.9875
B(  5-N ,  6-C ) :   1.2878 B(  5-N , 10-H ) :   0.9091 B(  6-C ,  7-N ) :   1.4213
B(  6-C , 12-H ) :   0.9460 B( 13-C , 14-C ) :   1.1310 B( 13-C , 44-H ) :   0.9612
B( 13-C , 45-H ) :   0.9598 B( 13-C , 46-H ) :   0.9601 B( 14-C , 15-C ) :   1.0646
B( 14-C , 20-H ) :   0.9154 B( 14-C , 21-H ) :   0.9158 B( 15-C , 16-C ) :   1.4930
B( 15-C , 17-N ) :   1.3274 B( 16-C , 19-N ) :   1.2088 B( 16-C , 22-H ) :   0.9796
B( 17-N , 18-C ) :   1.4806 B( 18-C , 19-N ) :   1.2893 B( 18-C , 23-H ) :   0.9352
B( 19-N , 24-H ) :   0.9087 B( 25-O , 31-O ) :   0.1036 B( 25-O , 33-C ) :   1.2937
B( 26-O , 30-O ) :   0.1089 B( 26-O , 32-C ) :   1.2491 B( 27-O , 29-O ) :   0.1019
B( 27-O , 34-C ) :   1.2559 B( 28-N , 35-C ) :   0.8815 B( 28-N , 38-C ) :   0.8901
B( 28-N , 41-C ) :   0.8782 B( 29-O , 34-C ) :   2.0460 B( 30-O , 32-C ) :   2.0302
B( 31-O , 33-C ) :   2.0271 B( 32-C , 41-C ) :   0.9602 B( 33-C , 35-C ) :   0.9248
B( 34-C , 38-C ) :   0.9440 B( 35-C , 36-H ) :   0.9039 B( 35-C , 37-H ) :   0.9258
B( 38-C , 39-H ) :   0.9222 B( 38-C , 40-H ) :   0.9132 B( 41-C , 42-H ) :   0.9124
B( 41-C , 43-H ) :   0.9197

Dispersion correction           -0.108402657
FINAL SINGLE POINT ENERGY     -2730.459282288200

DIPOLE MOMENT
-------------
                                X             Y             Z
Electronic contribution:     -9.35441      10.52827     -32.40855
Nuclear contribution   :     12.32485     -14.51722      34.56902
                        -----------------------------------------
Total Dipole Moment    :      2.97044      -3.98895       2.16048
                        -----------------------------------------
Magnitude (a.u.)       :      5.42244
Magnitude (Debye)      :     13.78274

Rotational constants in cm-1:     0.006784     0.004758     0.004054
Rotational constants in MHz :   203.378557   142.634860   121.547548

                             ****ORCA TERMINATED NORMALLY****
TOTAL RUN TIME: 0 days 3 hours 2 minutes 27 seconds 900 msec
