                         Program Version 5.0.0 -  RELEASE  -
|  1> ! RI BP86 def2-SVP def2/J D3BJ TIGHTSCF Opt
|  2> ! CPCM
|  3> # memory
|  4> %maxcore 32000
|  5> # smd solvation model
|  6> %cpcm
|  7> smd true
|  8> SMDsolvent "DMF"
|  9> end
| 10> # triple zeta basis on Co
| 11> %basis newgto Co "def2-TZVP" end end
| 12> # constrain CA and CB atoms of diHis (determined by backbone helix)
| 13> # and constrain Co in PCS defined position
| 14> %geom
| 15> Constraints
| 16> {C 1 C}
| 17> {C 2 C}
| 18> {C 13 C}
| 19> {C 14 C}
| 20> end
| 21> end
| 22>  * xyzfile 0 1 ../32Ne-28Ne-nta-co-min.xyz
| 23>
| 24>                          ****END OF INPUT****
 Total Charge           Charge          ....    0
 Multiplicity           Mult            ....    1
 Number of Electrons    NEL             ....  228
Dispersion correction           -0.114236516
FINAL SINGLE POINT ENERGY     -2730.371140152718
Dispersion correction            ... done
Dispersion correction           -0.114287698
FINAL SINGLE POINT ENERGY     -2730.410411809160
Dispersion correction            ... done
Dispersion correction           -0.114212460
FINAL SINGLE POINT ENERGY     -2730.434323871242
Dispersion correction            ... done
FINAL SINGLE POINT ENERGY     -2730.449630135683
FINAL SINGLE POINT ENERGY     -2730.461663498728
FINAL SINGLE POINT ENERGY     -2730.471578786480
FINAL SINGLE POINT ENERGY     -2730.479684643846
FINAL SINGLE POINT ENERGY     -2730.486096365852
FINAL SINGLE POINT ENERGY     -2730.491082787329
FINAL SINGLE POINT ENERGY     -2730.494862566451
FINAL SINGLE POINT ENERGY     -2730.502251909389
FINAL SINGLE POINT ENERGY     -2730.502398375988
FINAL SINGLE POINT ENERGY     -2730.502504342388
FINAL SINGLE POINT ENERGY     -2730.502578874249
FINAL SINGLE POINT ENERGY     -2730.502620445101
FINAL SINGLE POINT ENERGY     -2730.502632328799
FINAL SINGLE POINT ENERGY     -2730.502643327408
Dispersion correction            ... done
Dispersion correction           -0.113539368
FINAL SINGLE POINT ENERGY     -2730.502648889196
Dispersion correction            ... done
Dispersion correction           -0.113547983
FINAL SINGLE POINT ENERGY     -2730.502653261409
Dispersion correction            ... done
                    ***********************HURRAY********************

CARTESIAN COORDINATES (ANGSTROEM)
---------------------------------
  Co    -7.491745   -0.899784  -12.401106
  C     -3.042370    0.141290   -8.178930
  C     -2.815370    0.252290   -9.687930
  C     -3.868618   -0.403561  -10.525355
  C     -5.059300    0.076651  -11.053801
  N     -3.830345   -1.742330  -10.887470
  C     -4.944854   -2.048920  -11.601413
  N     -5.703886   -0.955381  -11.709984
  H     -1.827040   -0.181796   -9.951678
  H     -2.769766    1.322637   -9.976856
  H     -3.074083   -2.396516  -10.661859
  H     -5.495296    1.078738  -11.005862
  H     -5.195811   -3.035110  -12.001974
  C     -8.225370   -2.540710   -5.994930
  C     -7.870370   -3.127710   -7.361930
  C     -8.016018   -2.183399   -8.519227
  C     -7.850457   -2.389635   -9.880473
  N     -8.312081   -0.835728   -8.396660
  C     -8.310807   -0.258666   -9.626540
  N     -8.036125   -1.189669  -10.549266
  H     -8.494597   -4.024717   -7.562120
  H     -6.822053   -3.498542   -7.345601
  H     -7.584745   -3.308447  -10.409112
  H     -8.485039    0.804714   -9.808739
  O     -7.669526    0.997750  -12.175716
  O     -6.810720   -0.591907  -14.146403
  O     -7.559071   -2.794168  -12.729589
  N     -9.294219   -0.868600  -13.165049
  O     -9.062964   -4.450686  -12.969538
  O     -7.445926   -0.244721  -16.272953
  O     -9.220828    2.623733  -12.245129
  C     -7.701716   -0.493802  -15.092872
  C     -8.893768    1.440880  -12.341741
  C     -8.782797   -3.258695  -12.848742
  C     -9.940387    0.336824  -12.589268
  H    -10.373387    0.068220  -11.605570
  H    -10.763133    0.704294  -13.234450
  C     -9.876538   -2.175232  -12.769526
  H    -10.210734   -2.109961  -11.715349
  H    -10.751042   -2.442330  -13.396768
  C     -9.142758   -0.768671  -14.650562
  H     -7.574433   -1.679855   -5.733943
  H     -8.094872   -3.304585   -5.203354
  H     -9.279727   -2.195485   -5.955863
  H     -3.071019   -0.918606   -7.850766
  H     -4.002239    0.611679   -7.881449
  H     -2.226901    0.646523   -7.621985
  H     -9.815635    0.014557  -15.050890
  H     -9.450562   -1.727459  -15.113173
  H     -8.497301   -0.340239   -7.518918

 Multiplicity           Mult            ....    1
 Number of Electrons    NEL             ....  228
 Basis Dimension        Dim             ....  533

ORBITAL ENERGIES
----------------

  NO   OCC          E(Eh)            E(eV)
   0   2.0000    -276.212047     -7516.1119
   1   2.0000     -32.358205      -880.5115
   2   2.0000     -28.085827      -764.2542
   3   2.0000     -28.083998      -764.2044
   4   2.0000     -28.083287      -764.1851
   5   2.0000     -18.766599      -510.6651
   6   2.0000     -18.766246      -510.6555
   7   2.0000     -18.761268      -510.5201
   8   2.0000     -18.734409      -509.7892
   9   2.0000     -18.734045      -509.7793
  10   2.0000     -18.727690      -509.6063
  11   2.0000     -14.079326      -383.1179
  12   2.0000     -14.078922      -383.1070
  13   2.0000     -14.075493      -383.0136
  14   2.0000     -14.046047      -382.2124
  15   2.0000     -14.041098      -382.0777
  16   2.0000     -10.003822      -272.2178
  17   2.0000     -10.003610      -272.2121
  18   2.0000      -9.997785      -272.0536
  19   2.0000      -9.977832      -271.5106
  20   2.0000      -9.974098      -271.4090
  21   2.0000      -9.954531      -270.8766
  22   2.0000      -9.951441      -270.7925
  23   2.0000      -9.947872      -270.6954
  24   2.0000      -9.947484      -270.6848
  25   2.0000      -9.945489      -270.6305
  26   2.0000      -9.933596      -270.3069
  27   2.0000      -9.932954      -270.2894
  28   2.0000      -9.924844      -270.0687
  29   2.0000      -9.922340      -270.0006
  30   2.0000      -9.908759      -269.6310
  31   2.0000      -9.906063      -269.5577
  32   2.0000      -3.546870       -96.5152
  33   2.0000      -2.273889       -61.8757
  34   2.0000      -2.269899       -61.7671
  35   2.0000      -2.269124       -61.7460
  36   2.0000      -0.951026       -25.8787
  37   2.0000      -0.944836       -25.7103
  38   2.0000      -0.941158       -25.6102
  39   2.0000      -0.940092       -25.5812
  40   2.0000      -0.937753       -25.5175
  41   2.0000      -0.875352       -23.8195
  42   2.0000      -0.861994       -23.4560
  43   2.0000      -0.857378       -23.3304
  44   2.0000      -0.855412       -23.2769
  45   2.0000      -0.808980       -22.0135
  46   2.0000      -0.801919       -21.8213
  47   2.0000      -0.716843       -19.5063
  48   2.0000      -0.715163       -19.4606
  49   2.0000      -0.671453       -18.2712
  50   2.0000      -0.664372       -18.0785
  51   2.0000      -0.659314       -17.9409
  52   2.0000      -0.655580       -17.8392
  53   2.0000      -0.579012       -15.7557
  54   2.0000      -0.573441       -15.6041
  55   2.0000      -0.571243       -15.5443
  56   2.0000      -0.562055       -15.2943
  57   2.0000      -0.554524       -15.0894
  58   2.0000      -0.543595       -14.7920
  59   2.0000      -0.535955       -14.5841
  60   2.0000      -0.492200       -13.3935
  61   2.0000      -0.486810       -13.2468
  62   2.0000      -0.483878       -13.1670
  63   2.0000      -0.478151       -13.0111
  64   2.0000      -0.463173       -12.6036
  65   2.0000      -0.451417       -12.2837
  66   2.0000      -0.447214       -12.1693
  67   2.0000      -0.440360       -11.9828
  68   2.0000      -0.423121       -11.5137
  69   2.0000      -0.417253       -11.3540
  70   2.0000      -0.413884       -11.2624
  71   2.0000      -0.408933       -11.1276
  72   2.0000      -0.400534       -10.8991
  73   2.0000      -0.399004       -10.8574
  74   2.0000      -0.398219       -10.8361
  75   2.0000      -0.392296       -10.6749
  76   2.0000      -0.390145       -10.6164
  77   2.0000      -0.386492       -10.5170
  78   2.0000      -0.383829       -10.4445
  79   2.0000      -0.380401       -10.3512
  80   2.0000      -0.378280       -10.2935
  81   2.0000      -0.377306       -10.2670
  82   2.0000      -0.372125       -10.1260
  83   2.0000      -0.360588        -9.8121
  84   2.0000      -0.353547        -9.6205
  85   2.0000      -0.351982        -9.5779
  86   2.0000      -0.351694        -9.5701
  87   2.0000      -0.345609        -9.4045
  88   2.0000      -0.338723        -9.2171
  89   2.0000      -0.335714        -9.1352
  90   2.0000      -0.327023        -8.8987
  91   2.0000      -0.319629        -8.6976
  92   2.0000      -0.313865        -8.5407
  93   2.0000      -0.311520        -8.4769
  94   2.0000      -0.309009        -8.4086
  95   2.0000      -0.306116        -8.3298
  96   2.0000      -0.298420        -8.1204
  97   2.0000      -0.288159        -7.8412
  98   2.0000      -0.277290        -7.5454
  99   2.0000      -0.264979        -7.2104
 100   2.0000      -0.260764        -7.0957
 101   2.0000      -0.258398        -7.0314
 102   2.0000      -0.251677        -6.8485
 103   2.0000      -0.250053        -6.8043
 104   2.0000      -0.230493        -6.2720
 105   2.0000      -0.222333        -6.0500
 106   2.0000      -0.213747        -5.8163
 107   2.0000      -0.210188        -5.7195
 108   2.0000      -0.208114        -5.6631
 109   2.0000      -0.200150        -5.4463
 110   2.0000      -0.197626        -5.3777
 111   2.0000      -0.184655        -5.0247
 112   2.0000      -0.182822        -4.9748
 113   2.0000      -0.172509        -4.6942
 114   0.0000      -0.090510        -2.4629
 115   0.0000      -0.086801        -2.3620
 116   0.0000      -0.028589        -0.7779
 117   0.0000      -0.024236        -0.6595
 118   0.0000      -0.017421        -0.4740

MULLIKEN ATOMIC CHARGES
-----------------------
   0 Co:   -0.189863
   1 C :   -0.067843
   2 C :    0.066133
   3 C :   -0.066013
   4 C :    0.019507
   5 N :   -0.033083
   6 C :    0.154503
   7 N :   -0.158535
   8 H :    0.043041
   9 H :    0.042704
  10 H :    0.192976
  11 H :    0.043850
  12 H :    0.091022
  13 C :   -0.099461
  14 C :    0.054769
  15 C :   -0.058234
  16 C :    0.003260
  17 N :   -0.043594
  18 C :    0.118294
  19 N :   -0.147242
  20 H :    0.055732
  21 H :    0.060441
  22 H :    0.045956
  23 H :    0.091029
  24 O :   -0.251472
  25 O :   -0.222833
  26 O :   -0.255808
  27 N :   -0.326314
  28 O :   -0.260018
  29 O :   -0.271446
  30 O :   -0.261942
  31 C :    0.142161
  32 C :    0.112130
  33 C :    0.104071
  34 C :    0.123164
  35 H :    0.082327
  36 H :    0.062498
  37 C :    0.123550
  38 H :    0.083113
  39 H :    0.061845
  40 C :    0.091459
  41 H :    0.053193
  42 H :    0.048183
  43 H :    0.051142
  44 H :    0.041597
  45 H :    0.040917
  46 H :    0.047804
  47 H :    0.076720
  48 H :    0.090326
  49 H :    0.194287
Sum of atomic charges:   -0.0000000

LOEWDIN ATOMIC CHARGES
----------------------
   0 Co:   -1.178348
   1 C :   -0.070186
   2 C :   -0.046300
   3 C :   -0.019758
   4 C :   -0.008150
   5 N :    0.118374
   6 C :    0.078441
   7 N :    0.160459
   8 H :    0.047552
   9 H :    0.050577
  10 H :    0.131617
  11 H :    0.043984
  12 H :    0.050980
  13 C :   -0.075738
  14 C :   -0.045373
  15 C :   -0.018076
  16 C :   -0.013385
  17 N :    0.121779
  18 C :    0.068283
  19 N :    0.138616
  20 H :    0.053143
  21 H :    0.053600
  22 H :    0.044713
  23 H :    0.050688
  24 O :   -0.021678
  25 O :    0.000328
  26 O :   -0.028103
  27 N :    0.132355
  28 O :   -0.232031
  29 O :   -0.246226
  30 O :   -0.234087
  31 C :    0.041944
  32 C :    0.040381
  33 C :    0.042916
  34 C :    0.033206
  35 H :    0.062042
  36 H :    0.044208
  37 C :    0.032710
  38 H :    0.061405
  39 H :    0.042789
  40 C :    0.030332
  41 H :    0.035380
  42 H :    0.041797
  43 H :    0.034947
  44 H :    0.032114
  45 H :    0.032390
  46 H :    0.036246
  47 H :    0.054429
  48 H :    0.063145
  49 H :    0.129568

  Mayer bond orders larger than 0.100000
B(  0-Co,  7-N ) :   0.6057 B(  0-Co, 19-N ) :   0.6195 B(  0-Co, 24-O ) :   0.7617
B(  0-Co, 25-O ) :   0.8587 B(  0-Co, 26-O ) :   0.7571 B(  0-Co, 27-N ) :   0.6103
B(  1-C ,  2-C ) :   1.1162 B(  1-C , 44-H ) :   0.9651 B(  1-C , 45-H ) :   0.9667
B(  1-C , 46-H ) :   0.9603 B(  2-C ,  3-C ) :   1.0823 B(  2-C ,  8-H ) :   0.9077
B(  2-C ,  9-H ) :   0.9112 B(  3-C ,  4-C ) :   1.4586 B(  3-C ,  5-N ) :   1.2362
B(  4-C ,  7-N ) :   1.2474 B(  4-C , 11-H ) :   0.9778 B(  5-N ,  6-C ) :   1.2727
B(  5-N , 10-H ) :   0.9080 B(  6-C ,  7-N ) :   1.4262 B(  6-C , 12-H ) :   0.9356
B( 13-C , 14-C ) :   1.1187 B( 13-C , 41-H ) :   0.9628 B( 13-C , 42-H ) :   0.9537
B( 13-C , 43-H ) :   0.9665 B( 14-C , 15-C ) :   1.0658 B( 14-C , 20-H ) :   0.9126
B( 14-C , 21-H ) :   0.9144 B( 15-C , 16-C ) :   1.4703 B( 15-C , 17-N ) :   1.2427
B( 16-C , 19-N ) :   1.2347 B( 16-C , 22-H ) :   0.9747 B( 17-N , 18-C ) :   1.2790
B( 17-N , 49-H ) :   0.9022 B( 18-C , 19-N ) :   1.4115 B( 18-C , 23-H ) :   0.9525
B( 24-O , 30-O ) :   0.1122 B( 24-O , 32-C ) :   1.2982 B( 25-O , 29-O ) :   0.1115
B( 25-O , 31-C ) :   1.2973 B( 26-O , 28-O ) :   0.1109 B( 26-O , 33-C ) :   1.2929
B( 27-N , 34-C ) :   0.8965 B( 27-N , 37-C ) :   0.8966 B( 27-N , 40-C ) :   0.8738
B( 28-O , 33-C ) :   2.0381 B( 29-O , 31-C ) :   2.0220 B( 30-O , 32-C ) :   2.0304
B( 31-C , 40-C ) :   0.9319 B( 32-C , 34-C ) :   0.9244 B( 33-C , 37-C ) :   0.9252
B( 34-C , 35-H ) :   0.9089 B( 34-C , 36-H ) :   0.9263 B( 37-C , 38-H ) :   0.9073
B( 37-C , 39-H ) :   0.9287 B( 40-C , 47-H ) :   0.9221 B( 40-C , 48-H ) :   0.9191

Dispersion correction           -0.113554378
FINAL SINGLE POINT ENERGY     -2730.502655734178

DIPOLE MOMENT
-------------
                                X             Y             Z
Electronic contribution:     -6.93713       2.80359     -31.49283
Nuclear contribution   :      7.88885      -4.16717      39.11371
                        -----------------------------------------
Total Dipole Moment    :      0.95173      -1.36359       7.62088
                        -----------------------------------------
Magnitude (a.u.)       :      7.80019
Magnitude (Debye)      :     19.82650

Rotational constants in cm-1:     0.007371     0.004898     0.004156
Rotational constants in MHz :   220.987280   146.826929   124.601757

                             ****ORCA TERMINATED NORMALLY****
TOTAL RUN TIME: 0 days 2 hours 15 minutes 42 seconds 430 msec
