                         Program Version 5.0.0 -  RELEASE  -
|  1> ! RI BP86 def2-SVP def2/J D3BJ TIGHTSCF Opt
|  2> ! CPCM
|  3> # memory
|  4> %maxcore 32000
|  5> # smd solvation model
|  6> %cpcm
|  7> smd true
|  8> SMDsolvent "DMF"
|  9> end
| 10> # triple zeta basis on Co
| 11> %basis newgto Co "def2-TZVP" end end
| 12> # constrain CA and CB atoms of diHis (determined by backbone helix)
| 13> # and constrain Co in PCS defined position
| 14> %geom
| 15> Constraints
| 16> {C 1 C}
| 17> {C 2 C}
| 18> {C 13 C}
| 19> {C 14 C}
| 20> end
| 21> end
| 22>  * xyzfile 0 1 ../32Nd-28Ne-nta-co-min.xyz
| 23>
| 24>                          ****END OF INPUT****
 Total Charge           Charge          ....    0
 Multiplicity           Mult            ....    1
 Number of Electrons    NEL             ....  228
Dispersion correction           -0.118910388
FINAL SINGLE POINT ENERGY     -2730.345052213736
Dispersion correction            ... done
Dispersion correction           -0.119283691
FINAL SINGLE POINT ENERGY     -2730.383777070858
Dispersion correction            ... done
Dispersion correction           -0.119312813
FINAL SINGLE POINT ENERGY     -2730.407864071686
Dispersion correction            ... done
FINAL SINGLE POINT ENERGY     -2730.423412233376
FINAL SINGLE POINT ENERGY     -2730.435471272293
FINAL SINGLE POINT ENERGY     -2730.445264453851
FINAL SINGLE POINT ENERGY     -2730.453072111397
FINAL SINGLE POINT ENERGY     -2730.459052626564
FINAL SINGLE POINT ENERGY     -2730.463469612630
FINAL SINGLE POINT ENERGY     -2730.466602137857
FINAL SINGLE POINT ENERGY     -2730.472279291989
FINAL SINGLE POINT ENERGY     -2730.472295952557
FINAL SINGLE POINT ENERGY     -2730.472314949315
FINAL SINGLE POINT ENERGY     -2730.472333669150
FINAL SINGLE POINT ENERGY     -2730.472353446075
FINAL SINGLE POINT ENERGY     -2730.472369850659
FINAL SINGLE POINT ENERGY     -2730.472381114319
Dispersion correction            ... done
Dispersion correction           -0.115873688
FINAL SINGLE POINT ENERGY     -2730.472386817994
Dispersion correction            ... done
Dispersion correction           -0.115858560
FINAL SINGLE POINT ENERGY     -2730.472389827447
Dispersion correction            ... done
                    ***********************HURRAY********************

CARTESIAN COORDINATES (ANGSTROEM)
---------------------------------
  Co    -6.849878    1.182093  -10.178234
  C     -1.685930    1.759170   -8.219620
  C     -1.458930    1.870170   -9.728620
  C     -2.786203    1.400352  -10.318100
  C     -3.999851    1.242123   -9.651249
  N     -3.060499    0.995744  -11.619180
  C     -4.370887    0.633256  -11.717990
  N     -4.962555    0.778802  -10.526427
  H     -0.626858    1.222498  -10.074102
  H     -1.229719    2.911373  -10.039277
  H     -2.383106    0.953414  -12.387180
  H     -4.271991    1.463847   -8.617643
  H     -4.864776    0.325885  -12.644152
  C     -6.868930   -0.922830   -6.035620
  C     -6.513930   -1.509830   -7.402620
  C     -7.459699   -1.539233   -8.582026
  C     -8.283648   -2.626315   -8.844273
  N     -7.452848   -0.724126   -9.740261
  C     -8.206974   -1.359718  -10.653166
  N     -8.734065   -2.490086  -10.135718
  H     -6.227175   -2.571021   -7.246439
  H     -5.587547   -1.009957   -7.759510
  H     -8.519314   -3.501289   -8.230044
  H     -8.375413   -1.040117  -11.682246
  H     -9.341126   -3.143235  -10.640989
  O     -6.635814    1.553995   -8.297897
  O     -6.260667    2.934047  -10.632001
  O     -7.345252    0.969253  -12.022127
  N     -8.640944    1.993121   -9.930040
  O     -9.098899    1.194683  -13.411321
  O     -6.908502    5.060523  -10.923311
  O     -7.845893    2.133819   -6.490460
  C     -7.138755    3.896357  -10.592821
  C     -7.763715    1.803892   -7.676225
  C     -8.607641    1.225673  -12.283526
  C     -9.018218    1.616739   -8.548829
  H     -9.309981    0.548704   -8.527581
  H     -9.865894    2.225673   -8.175462
  C     -9.478818    1.474727  -11.035230
  H    -10.315410    2.163370  -11.264046
  H     -9.915244    0.504011  -10.729868
  C     -8.492744    3.480460  -10.029963
  H     -8.576067    3.926668   -9.018916
  H     -9.313572    3.905375  -10.638835
  H     -6.991406    0.175129   -6.047011
  H     -6.055719   -1.167525   -5.321728
  H     -7.803890   -1.366441   -5.630098
  H     -1.951273    0.725331   -7.925695
  H     -2.490123    2.439049   -7.878955
  H     -0.771910    2.041389   -7.655339

 Multiplicity           Mult            ....    1
 Number of Electrons    NEL             ....  228
 Basis Dimension        Dim             ....  533

ORBITAL ENERGIES
----------------

  NO   OCC          E(Eh)            E(eV)
   0   2.0000    -276.217648     -7516.2643
   1   2.0000     -32.361365      -880.5975
   2   2.0000     -28.088757      -764.3339
   3   2.0000     -28.087651      -764.3038
   4   2.0000     -28.086365      -764.2689
   5   2.0000     -18.769354      -510.7401
   6   2.0000     -18.769196      -510.7358
   7   2.0000     -18.766605      -510.6653
   8   2.0000     -18.738216      -509.8928
   9   2.0000     -18.737861      -509.8831
  10   2.0000     -18.732251      -509.7305
  11   2.0000     -14.083670      -383.2361
  12   2.0000     -14.080539      -383.1510
  13   2.0000     -14.075353      -383.0098
  14   2.0000     -14.046150      -382.2152
  15   2.0000     -14.038274      -382.0009
  16   2.0000     -10.007217      -272.3102
  17   2.0000     -10.005953      -272.2758
  18   2.0000     -10.001179      -272.1459
  19   2.0000      -9.977940      -271.5136
  20   2.0000      -9.974503      -271.4200
  21   2.0000      -9.950933      -270.7786
  22   2.0000      -9.949996      -270.7532
  23   2.0000      -9.948698      -270.7178
  24   2.0000      -9.948594      -270.7150
  25   2.0000      -9.947786      -270.6930
  26   2.0000      -9.945359      -270.6270
  27   2.0000      -9.927940      -270.1530
  28   2.0000      -9.925621      -270.0899
  29   2.0000      -9.915248      -269.8076
  30   2.0000      -9.903415      -269.4856
  31   2.0000      -9.894600      -269.2458
  32   2.0000      -3.550117       -96.6036
  33   2.0000      -2.275913       -61.9307
  34   2.0000      -2.274142       -61.8826
  35   2.0000      -2.272165       -61.8287
  36   2.0000      -0.954903       -25.9842
  37   2.0000      -0.948034       -25.7973
  38   2.0000      -0.945066       -25.7166
  39   2.0000      -0.939390       -25.5621
  40   2.0000      -0.933865       -25.4118
  41   2.0000      -0.879419       -23.9302
  42   2.0000      -0.865025       -23.5385
  43   2.0000      -0.861297       -23.4371
  44   2.0000      -0.859219       -23.3805
  45   2.0000      -0.804423       -21.8895
  46   2.0000      -0.800348       -21.7786
  47   2.0000      -0.717860       -19.5340
  48   2.0000      -0.708662       -19.2837
  49   2.0000      -0.676549       -18.4098
  50   2.0000      -0.666165       -18.1273
  51   2.0000      -0.656747       -17.8710
  52   2.0000      -0.648460       -17.6455
  53   2.0000      -0.576052       -15.6752
  54   2.0000      -0.572295       -15.5729
  55   2.0000      -0.569212       -15.4890
  56   2.0000      -0.562889       -15.3170
  57   2.0000      -0.560189       -15.2435
  58   2.0000      -0.528824       -14.3900
  59   2.0000      -0.524685       -14.2774
  60   2.0000      -0.495475       -13.4826
  61   2.0000      -0.489553       -13.3214
  62   2.0000      -0.487538       -13.2666
  63   2.0000      -0.483066       -13.1449
  64   2.0000      -0.466481       -12.6936
  65   2.0000      -0.456473       -12.4212
  66   2.0000      -0.451406       -12.2834
  67   2.0000      -0.444216       -12.0877
  68   2.0000      -0.421771       -11.4770
  69   2.0000      -0.412984       -11.2379
  70   2.0000      -0.410522       -11.1709
  71   2.0000      -0.408080       -11.1044
  72   2.0000      -0.405787       -11.0420
  73   2.0000      -0.403336       -10.9753
  74   2.0000      -0.401638       -10.9291
  75   2.0000      -0.395307       -10.7568
  76   2.0000      -0.385940       -10.5020
  77   2.0000      -0.385638       -10.4937
  78   2.0000      -0.381887       -10.3917
  79   2.0000      -0.379432       -10.3249
  80   2.0000      -0.373687       -10.1685
  81   2.0000      -0.372053       -10.1241
  82   2.0000      -0.368864       -10.0373
  83   2.0000      -0.363827        -9.9002
  84   2.0000      -0.355584        -9.6759
  85   2.0000      -0.353887        -9.6298
  86   2.0000      -0.343966        -9.3598
  87   2.0000      -0.339503        -9.2384
  88   2.0000      -0.339243        -9.2313
  89   2.0000      -0.332518        -9.0483
  90   2.0000      -0.325757        -8.8643
  91   2.0000      -0.319635        -8.6977
  92   2.0000      -0.309505        -8.4220
  93   2.0000      -0.308503        -8.3948
  94   2.0000      -0.307061        -8.3556
  95   2.0000      -0.298114        -8.1121
  96   2.0000      -0.288714        -7.8563
  97   2.0000      -0.280255        -7.6261
  98   2.0000      -0.278763        -7.5855
  99   2.0000      -0.268311        -7.3011
 100   2.0000      -0.263391        -7.1672
 101   2.0000      -0.260889        -7.0991
 102   2.0000      -0.254868        -6.9353
 103   2.0000      -0.253595        -6.9007
 104   2.0000      -0.232297        -6.3211
 105   2.0000      -0.225145        -6.1265
 106   2.0000      -0.213753        -5.8165
 107   2.0000      -0.211626        -5.7586
 108   2.0000      -0.207552        -5.6478
 109   2.0000      -0.204016        -5.5516
 110   2.0000      -0.200430        -5.4540
 111   2.0000      -0.187600        -5.1049
 112   2.0000      -0.184935        -5.0323
 113   2.0000      -0.176111        -4.7922
 114   0.0000      -0.101283        -2.7560
 115   0.0000      -0.098448        -2.6789
 116   0.0000      -0.028403        -0.7729
 117   0.0000      -0.024081        -0.6553
 118   0.0000      -0.021086        -0.5738

MULLIKEN ATOMIC CHARGES
-----------------------
   0 Co:   -0.114461
   1 C :   -0.092838
   2 C :    0.091401
   3 C :   -0.097517
   4 C :    0.023405
   5 N :   -0.042320
   6 C :    0.159668
   7 N :   -0.156843
   8 H :    0.051092
   9 H :    0.060878
  10 H :    0.192147
  11 H :    0.049641
  12 H :    0.086683
  13 C :   -0.066150
  14 C :    0.019825
  15 C :   -0.040517
  16 C :   -0.020684
  17 N :   -0.178107
  18 C :    0.110582
  19 N :   -0.024111
  20 H :    0.034794
  21 H :    0.038393
  22 H :    0.061783
  23 H :    0.094959
  24 H :    0.201232
  25 O :   -0.251950
  26 O :   -0.214737
  27 O :   -0.254270
  28 N :   -0.337895
  29 O :   -0.255647
  30 O :   -0.265125
  31 O :   -0.267499
  32 C :    0.128868
  33 C :    0.117152
  34 C :    0.095654
  35 C :    0.148293
  36 H :    0.085564
  37 H :    0.056553
  38 C :    0.137535
  39 H :    0.064557
  40 H :    0.090951
  41 C :    0.072686
  42 H :    0.097719
  43 H :    0.079052
  44 H :    0.035401
  45 H :    0.032105
  46 H :    0.025453
  47 H :    0.047587
  48 H :    0.056313
  49 H :    0.032745
Sum of atomic charges:    0.0000000

LOEWDIN ATOMIC CHARGES
----------------------
   0 Co:   -1.119821
   1 C :   -0.067507
   2 C :   -0.036808
   3 C :   -0.026676
   4 C :   -0.004866
   5 N :    0.114518
   6 C :    0.079828
   7 N :    0.138211
   8 H :    0.047443
   9 H :    0.050109
  10 H :    0.130832
  11 H :    0.041169
  12 H :    0.048858
  13 C :   -0.081528
  14 C :   -0.047079
  15 C :   -0.011690
  16 C :   -0.023150
  17 N :    0.103207
  18 C :    0.071408
  19 N :    0.127981
  20 H :    0.045395
  21 H :    0.046784
  22 H :    0.051193
  23 H :    0.049870
  24 H :    0.135955
  25 O :   -0.020473
  26 O :    0.006947
  27 O :   -0.025494
  28 N :    0.132962
  29 O :   -0.227409
  30 O :   -0.237992
  31 O :   -0.227508
  32 C :    0.039646
  33 C :    0.048390
  34 C :    0.037104
  35 C :    0.035654
  36 H :    0.060460
  37 H :    0.041887
  38 C :    0.031058
  39 H :    0.046574
  40 H :    0.061346
  41 C :    0.029318
  42 H :    0.064890
  43 H :    0.055373
  44 H :    0.022784
  45 H :    0.033385
  46 H :    0.025319
  47 H :    0.034457
  48 H :    0.036830
  49 H :    0.030857

  Mayer bond orders larger than 0.100000
B(  0-Co,  7-N ) :   0.6050 B(  0-Co, 17-N ) :   0.5639 B(  0-Co, 25-O ) :   0.7289
B(  0-Co, 26-O ) :   0.8461 B(  0-Co, 27-O ) :   0.7538 B(  0-Co, 28-N ) :   0.6063
B(  1-C ,  2-C ) :   1.1432 B(  1-C , 47-H ) :   0.9626 B(  1-C , 48-H ) :   0.9514
B(  1-C , 49-H ) :   0.9530 B(  2-C ,  3-C ) :   1.0539 B(  2-C ,  8-H ) :   0.9156
B(  2-C ,  9-H ) :   0.9085 B(  3-C ,  4-C ) :   1.4717 B(  3-C ,  5-N ) :   1.2225
B(  4-C ,  7-N ) :   1.2405 B(  4-C , 11-H ) :   0.9583 B(  5-N ,  6-C ) :   1.2814
B(  5-N , 10-H ) :   0.9116 B(  6-C ,  7-N ) :   1.4270 B(  6-C , 12-H ) :   0.9414
B( 13-C , 14-C ) :   1.1219 B( 13-C , 44-H ) :   0.9381 B( 13-C , 45-H ) :   0.9526
B( 13-C , 46-H ) :   0.9629 B( 14-C , 15-C ) :   1.0683 B( 14-C , 20-H ) :   0.9227
B( 14-C , 21-H ) :   0.9123 B( 15-C , 16-C ) :   1.4912 B( 15-C , 17-N ) :   1.2573
B( 16-C , 19-N ) :   1.2191 B( 16-C , 22-H ) :   0.9849 B( 17-N , 18-C ) :   1.3977
B( 18-C , 19-N ) :   1.3120 B( 18-C , 23-H ) :   0.9445 B( 19-N , 24-H ) :   0.9084
B( 25-O , 31-O ) :   0.1130 B( 25-O , 33-C ) :   1.3287 B( 26-O , 30-O ) :   0.1111
B( 26-O , 32-C ) :   1.3097 B( 27-O , 29-O ) :   0.1134 B( 27-O , 34-C ) :   1.2915
B( 28-N , 35-C ) :   0.8939 B( 28-N , 38-C ) :   0.8996 B( 28-N , 41-C ) :   0.8833
B( 29-O , 34-C ) :   2.0279 B( 30-O , 32-C ) :   2.0231 B( 31-O , 33-C ) :   1.9467
B( 32-C , 41-C ) :   0.9487 B( 33-C , 35-C ) :   0.9283 B( 34-C , 38-C ) :   0.9335
B( 35-C , 36-H ) :   0.8980 B( 35-C , 37-H ) :   0.9293 B( 38-C , 39-H ) :   0.9235
B( 38-C , 40-H ) :   0.8915 B( 41-C , 42-H ) :   0.9153 B( 41-C , 43-H ) :   0.9187

Dispersion correction           -0.115841819
FINAL SINGLE POINT ENERGY     -2730.472392007354

DIPOLE MOMENT
-------------
                                X             Y             Z
Electronic contribution:    -11.81549       5.75241     -19.43308
Nuclear contribution   :     12.04672     -11.14991      19.09074
                        -----------------------------------------
Total Dipole Moment    :      0.23123      -5.39750      -0.34234
                        -----------------------------------------
Magnitude (a.u.)       :      5.41328
Magnitude (Debye)      :     13.75947

Rotational constants in cm-1:     0.006811     0.005577     0.004720
Rotational constants in MHz :   204.179167   167.204259   141.498977

                             ****ORCA TERMINATED NORMALLY****
TOTAL RUN TIME: 0 days 2 hours 26 minutes 4 seconds 27 msec
