                         Program Version 5.0.0 -  RELEASE  -
|  1> ! RI BP86 def2-SVP def2/J D3BJ TIGHTSCF Opt
|  2> ! CPCM
|  3> # memory
|  4> %maxcore 32000
|  5> # smd solvation model
|  6> %cpcm
|  7> smd true
|  8> SMDsolvent "DMF"
|  9> end
| 10> # triple zeta basis on Co
| 11> %basis newgto Co "def2-TZVP" end end
| 12> # constrain CA and CB atoms of diHis (determined by backbone helix)
| 13> # and constrain Co in PCS defined position
| 14> %geom
| 15> Constraints
| 16> {C 0 C}
| 17> {C 1 C}
| 18> {C 2 C}
| 19> {C 13 C}
| 20> {C 14 C}
| 21> end
| 22> end
| 23>  * xyzfile 0 1 ../32Ne-28Ne-nta-co-min.xyz
| 24>
| 25>                          ****END OF INPUT****
 Total Charge           Charge          ....    0
 Multiplicity           Mult            ....    1
 Number of Electrons    NEL             ....  228
Dispersion correction           -0.114236516
FINAL SINGLE POINT ENERGY     -2730.371140152718
Dispersion correction            ... done
Dispersion correction           -0.114176069
FINAL SINGLE POINT ENERGY     -2730.409493642014
Dispersion correction            ... done
Dispersion correction           -0.113965677
FINAL SINGLE POINT ENERGY     -2730.432867257337
Dispersion correction            ... done
FINAL SINGLE POINT ENERGY     -2730.447831607279
FINAL SINGLE POINT ENERGY     -2730.459540072514
FINAL SINGLE POINT ENERGY     -2730.469233093503
FINAL SINGLE POINT ENERGY     -2730.477171420882
FINAL SINGLE POINT ENERGY     -2730.483423204991
FINAL SINGLE POINT ENERGY     -2730.488239905597
FINAL SINGLE POINT ENERGY     -2730.491872510505
FINAL SINGLE POINT ENERGY     -2730.498758884344
FINAL SINGLE POINT ENERGY     -2730.498793667776
FINAL SINGLE POINT ENERGY     -2730.498842181517
FINAL SINGLE POINT ENERGY     -2730.498906019357
FINAL SINGLE POINT ENERGY     -2730.498961232934
FINAL SINGLE POINT ENERGY     -2730.498986115088
FINAL SINGLE POINT ENERGY     -2730.499001677255
Dispersion correction            ... done
Dispersion correction           -0.114088808
FINAL SINGLE POINT ENERGY     -2730.499018316650
Dispersion correction            ... done
Dispersion correction           -0.114090835
FINAL SINGLE POINT ENERGY     -2730.499024761351
Dispersion correction            ... done
                    ***********************HURRAY********************

CARTESIAN COORDINATES (ANGSTROEM)
---------------------------------
  Co    -7.837370    0.084290  -12.025930
  C     -3.042370    0.141290   -8.178930
  C     -2.815370    0.252290   -9.687930
  C     -4.000950   -0.100281  -10.539108
  C     -5.158593    0.597531  -10.863141
  N     -4.144587   -1.332679  -11.160960
  C     -5.331198   -1.372923  -11.820487
  N     -5.964964   -0.209615  -11.647639
  H     -1.964400   -0.394516   -9.989265
  H     -2.510775    1.291464   -9.933997
  H     -3.456037   -2.091406  -11.134909
  H     -5.472548    1.605670  -10.577226
  H     -5.726232   -2.230927  -12.371487
  C     -8.225370   -2.540710   -5.994930
  C     -7.870370   -3.127710   -7.361930
  C     -7.910411   -2.023845   -8.404061
  C     -8.103260   -1.970882   -9.781972
  N     -7.772035   -0.693230   -8.026941
  C     -7.875918    0.107505   -9.111443
  N     -8.083931   -0.642043  -10.200203
  H     -8.578736   -3.927170   -7.658227
  H     -6.859636   -3.589855   -7.335715
  H     -8.242680   -2.796455  -10.485464
  H     -7.769384    1.194960   -9.093820
  O     -7.841333    1.876486  -11.333105
  O     -7.423452    0.790391  -13.733200
  O     -8.085937   -1.669363  -12.764208
  N     -9.729034    0.360128  -12.424426
  O     -9.720463   -3.163401  -13.161976
  O     -8.363189    1.747030  -15.535128
  O     -9.270685    3.480054  -10.666031
  C     -8.444884    1.189097  -14.439108
  C     -9.044269    2.362620  -11.129301
  C     -9.342705   -2.049087  -12.800664
  C    -10.185032    1.377412  -11.445142
  H    -10.444260    0.862515  -10.498841
  H    -11.086670    1.911579  -11.805431
  C    -10.337553   -0.987767  -12.290434
  H    -10.525114   -1.187848  -11.217035
  H    -11.303437   -1.053481  -12.830464
  C     -9.813424    0.860827  -13.832759
  H     -7.462260   -1.815909   -5.644290
  H     -8.271213   -3.338471   -5.225872
  H     -9.211551   -2.033750   -6.008951
  H     -3.310037   -0.894148   -7.882411
  H     -3.863470    0.808893   -7.845093
  H     -2.124807    0.427145   -7.625204
  H    -10.473029    1.748973  -13.883619
  H    -10.272335    0.078111  -14.468799
  H     -7.624774   -0.356791   -7.070984

 Multiplicity           Mult            ....    1
 Number of Electrons    NEL             ....  228
 Basis Dimension        Dim             ....  533

ORBITAL ENERGIES
----------------

  NO   OCC          E(Eh)            E(eV)
   0   2.0000    -276.212437     -7516.1225
   1   2.0000     -32.358124      -880.5093
   2   2.0000     -28.085812      -764.2538
   3   2.0000     -28.083857      -764.2006
   4   2.0000     -28.083240      -764.1838
   5   2.0000     -18.766900      -510.6733
   6   2.0000     -18.766743      -510.6690
   7   2.0000     -18.762617      -510.5568
   8   2.0000     -18.734553      -509.7931
   9   2.0000     -18.734453      -509.7904
  10   2.0000     -18.728576      -509.6305
  11   2.0000     -14.080093      -383.1388
  12   2.0000     -14.076375      -383.0376
  13   2.0000     -14.075850      -383.0233
  14   2.0000     -14.045011      -382.1842
  15   2.0000     -14.040932      -382.0732
  16   2.0000     -10.004020      -272.2232
  17   2.0000     -10.003982      -272.2222
  18   2.0000      -9.998574      -272.0750
  19   2.0000      -9.975798      -271.4553
  20   2.0000      -9.973868      -271.4028
  21   2.0000      -9.956242      -270.9231
  22   2.0000      -9.952304      -270.8159
  23   2.0000      -9.947965      -270.6979
  24   2.0000      -9.947869      -270.6953
  25   2.0000      -9.946013      -270.6448
  26   2.0000      -9.938455      -270.4391
  27   2.0000      -9.933460      -270.3032
  28   2.0000      -9.927162      -270.1318
  29   2.0000      -9.923024      -270.0192
  30   2.0000      -9.909367      -269.6476
  31   2.0000      -9.906268      -269.5633
  32   2.0000      -3.546872       -96.5153
  33   2.0000      -2.273988       -61.8784
  34   2.0000      -2.269754       -61.7632
  35   2.0000      -2.269132       -61.7462
  36   2.0000      -0.951427       -25.8896
  37   2.0000      -0.945193       -25.7200
  38   2.0000      -0.941441       -25.6179
  39   2.0000      -0.940168       -25.5833
  40   2.0000      -0.937283       -25.5048
  41   2.0000      -0.875838       -23.8328
  42   2.0000      -0.862398       -23.4670
  43   2.0000      -0.858120       -23.3506
  44   2.0000      -0.856088       -23.2954
  45   2.0000      -0.808467       -21.9995
  46   2.0000      -0.801307       -21.8047
  47   2.0000      -0.716163       -19.4878
  48   2.0000      -0.714546       -19.4438
  49   2.0000      -0.671593       -18.2750
  50   2.0000      -0.664814       -18.0905
  51   2.0000      -0.659957       -17.9583
  52   2.0000      -0.655606       -17.8400
  53   2.0000      -0.577786       -15.7224
  54   2.0000      -0.573798       -15.6138
  55   2.0000      -0.570779       -15.5317
  56   2.0000      -0.562765       -15.3136
  57   2.0000      -0.552721       -15.0403
  58   2.0000      -0.542434       -14.7604
  59   2.0000      -0.534427       -14.5425
  60   2.0000      -0.492993       -13.4150
  61   2.0000      -0.489146       -13.3103
  62   2.0000      -0.484510       -13.1842
  63   2.0000      -0.478800       -13.0288
  64   2.0000      -0.463744       -12.6191
  65   2.0000      -0.451463       -12.2849
  66   2.0000      -0.447211       -12.1692
  67   2.0000      -0.440722       -11.9926
  68   2.0000      -0.423468       -11.5232
  69   2.0000      -0.415486       -11.3060
  70   2.0000      -0.413285       -11.2461
  71   2.0000      -0.408722       -11.1219
  72   2.0000      -0.401118       -10.9150
  73   2.0000      -0.399877       -10.8812
  74   2.0000      -0.397791       -10.8244
  75   2.0000      -0.391476       -10.6526
  76   2.0000      -0.390253       -10.6193
  77   2.0000      -0.386405       -10.5146
  78   2.0000      -0.384848       -10.4722
  79   2.0000      -0.380136       -10.3440
  80   2.0000      -0.377684       -10.2773
  81   2.0000      -0.377172       -10.2634
  82   2.0000      -0.372150       -10.1267
  83   2.0000      -0.361170        -9.8279
  84   2.0000      -0.352928        -9.6037
  85   2.0000      -0.352245        -9.5851
  86   2.0000      -0.348888        -9.4937
  87   2.0000      -0.344084        -9.3630
  88   2.0000      -0.338761        -9.2182
  89   2.0000      -0.336659        -9.1610
  90   2.0000      -0.328153        -8.9295
  91   2.0000      -0.324228        -8.8227
  92   2.0000      -0.314079        -8.5465
  93   2.0000      -0.311072        -8.4647
  94   2.0000      -0.308828        -8.4036
  95   2.0000      -0.306327        -8.3356
  96   2.0000      -0.298161        -8.1134
  97   2.0000      -0.286600        -7.7988
  98   2.0000      -0.277730        -7.5574
  99   2.0000      -0.264948        -7.2096
 100   2.0000      -0.261346        -7.1116
 101   2.0000      -0.258538        -7.0352
 102   2.0000      -0.252949        -6.8831
 103   2.0000      -0.250318        -6.8115
 104   2.0000      -0.230909        -6.2833
 105   2.0000      -0.223240        -6.0747
 106   2.0000      -0.215562        -5.8657
 107   2.0000      -0.210619        -5.7312
 108   2.0000      -0.208112        -5.6630
 109   2.0000      -0.200866        -5.4658
 110   2.0000      -0.197976        -5.3872
 111   2.0000      -0.184914        -5.0318
 112   2.0000      -0.182889        -4.9767
 113   2.0000      -0.172426        -4.6919
 114   0.0000      -0.091156        -2.4805
 115   0.0000      -0.089151        -2.4259
 116   0.0000      -0.029227        -0.7953
 117   0.0000      -0.025212        -0.6861
 118   0.0000      -0.016452        -0.4477

MULLIKEN ATOMIC CHARGES
-----------------------
   0 Co:   -0.183515
   1 C :   -0.072546
   2 C :    0.065465
   3 C :   -0.067852
   4 C :    0.018999
   5 N :   -0.031945
   6 C :    0.154517
   7 N :   -0.159753
   8 H :    0.039987
   9 H :    0.047206
  10 H :    0.192780
  11 H :    0.045729
  12 H :    0.088575
  13 C :   -0.118119
  14 C :    0.081658
  15 C :   -0.059816
  16 C :   -0.018596
  17 N :   -0.044489
  18 C :    0.132675
  19 N :   -0.156090
  20 H :    0.052743
  21 H :    0.063568
  22 H :    0.046884
  23 H :    0.091098
  24 O :   -0.259125
  25 O :   -0.224426
  26 O :   -0.253120
  27 N :   -0.326526
  28 O :   -0.262065
  29 O :   -0.269929
  30 O :   -0.260345
  31 C :    0.145315
  32 C :    0.110312
  33 C :    0.110810
  34 C :    0.122198
  35 H :    0.084857
  36 H :    0.062897
  37 C :    0.119325
  38 H :    0.081638
  39 H :    0.063496
  40 C :    0.091760
  41 H :    0.059328
  42 H :    0.045860
  43 H :    0.054266
  44 H :    0.042493
  45 H :    0.043625
  46 H :    0.047816
  47 H :    0.078173
  48 H :    0.090794
  49 H :    0.191410
Sum of atomic charges:    0.0000000

LOEWDIN ATOMIC CHARGES
----------------------
   0 Co:   -1.170070
   1 C :   -0.069979
   2 C :   -0.046208
   3 C :   -0.019776
   4 C :   -0.008587
   5 N :    0.118656
   6 C :    0.077263
   7 N :    0.154432
   8 H :    0.047373
   9 H :    0.050698
  10 H :    0.131039
  11 H :    0.043678
  12 H :    0.050195
  13 C :   -0.075326
  14 C :   -0.040294
  15 C :   -0.017325
  16 C :   -0.018203
  17 N :    0.121388
  18 C :    0.072713
  19 N :    0.127630
  20 H :    0.051869
  21 H :    0.052187
  22 H :    0.043118
  23 H :    0.050736
  24 O :   -0.025844
  25 O :    0.003756
  26 O :   -0.023404
  27 N :    0.134056
  28 O :   -0.233188
  29 O :   -0.244271
  30 O :   -0.233196
  31 C :    0.043215
  32 C :    0.041600
  33 C :    0.042118
  34 C :    0.033668
  35 H :    0.063189
  36 H :    0.044201
  37 C :    0.033038
  38 H :    0.061114
  39 H :    0.043751
  40 C :    0.031095
  41 H :    0.036876
  42 H :    0.039673
  43 H :    0.036150
  44 H :    0.032275
  45 H :    0.032485
  46 H :    0.036509
  47 H :    0.054992
  48 H :    0.063564
  49 H :    0.125368

  Mayer bond orders larger than 0.100000
B(  0-Co,  7-N ) :   0.6045 B(  0-Co, 19-N ) :   0.6097 B(  0-Co, 24-O ) :   0.7502
B(  0-Co, 25-O ) :   0.8633 B(  0-Co, 26-O ) :   0.7663 B(  0-Co, 27-N ) :   0.6145
B(  1-C ,  2-C ) :   1.1155 B(  1-C , 44-H ) :   0.9646 B(  1-C , 45-H ) :   0.9684
B(  1-C , 46-H ) :   0.9603 B(  2-C ,  3-C ) :   1.0772 B(  2-C ,  8-H ) :   0.9080
B(  2-C ,  9-H ) :   0.9136 B(  3-C ,  4-C ) :   1.4587 B(  3-C ,  5-N ) :   1.2384
B(  4-C ,  7-N ) :   1.2495 B(  4-C , 11-H ) :   0.9776 B(  5-N ,  6-C ) :   1.2742
B(  5-N , 10-H ) :   0.9071 B(  6-C ,  7-N ) :   1.4254 B(  6-C , 12-H ) :   0.9355
B( 13-C , 14-C ) :   1.1140 B( 13-C , 41-H ) :   0.9578 B( 13-C , 42-H ) :   0.9528
B( 13-C , 43-H ) :   0.9694 B( 14-C , 15-C ) :   1.0572 B( 14-C , 20-H ) :   0.9187
B( 14-C , 21-H ) :   0.9104 B( 15-C , 16-C ) :   1.4794 B( 15-C , 17-N ) :   1.2306
B( 16-C , 19-N ) :   1.2373 B( 16-C , 22-H ) :   0.9830 B( 17-N , 18-C ) :   1.2914
B( 17-N , 49-H ) :   0.9009 B( 18-C , 19-N ) :   1.4072 B( 18-C , 23-H ) :   0.9436
B( 24-O , 30-O ) :   0.1115 B( 24-O , 32-C ) :   1.2915 B( 25-O , 29-O ) :   0.1111
B( 25-O , 31-C ) :   1.2916 B( 26-O , 28-O ) :   0.1118 B( 26-O , 33-C ) :   1.2984
B( 27-N , 34-C ) :   0.8974 B( 27-N , 37-C ) :   0.8954 B( 27-N , 40-C ) :   0.8723
B( 28-O , 33-C ) :   2.0306 B( 29-O , 31-C ) :   2.0228 B( 30-O , 32-C ) :   2.0360
B( 31-C , 40-C ) :   0.9320 B( 32-C , 34-C ) :   0.9247 B( 33-C , 37-C ) :   0.9243
B( 34-C , 35-H ) :   0.9101 B( 34-C , 36-H ) :   0.9267 B( 37-C , 38-H ) :   0.9071
B( 37-C , 39-H ) :   0.9283 B( 40-C , 47-H ) :   0.9225 B( 40-C , 48-H ) :   0.9191

Dispersion correction           -0.114096824
FINAL SINGLE POINT ENERGY     -2730.499028316048

DIPOLE MOMENT
-------------
                                X             Y             Z
Electronic contribution:     -9.08656       8.87883     -30.17675
Nuclear contribution   :     11.14473     -12.04833      37.21636
                        -----------------------------------------
Total Dipole Moment    :      2.05818      -3.16949       7.03961
                        -----------------------------------------
Magnitude (a.u.)       :      7.98986
Magnitude (Debye)      :     20.30861

Rotational constants in cm-1:     0.007461     0.004885     0.004191
Rotational constants in MHz :   223.670747   146.441312   125.654622

                             ****ORCA TERMINATED NORMALLY****
TOTAL RUN TIME: 0 days 2 hours 36 minutes 44 seconds 296 msec
