                         Program Version 5.0.0 -  RELEASE  -
|  1> ! RI BP86 def2-SVP def2/J D3BJ TIGHTSCF Opt
|  2> ! CPCM
|  3> # memory
|  4> %maxcore 32000
|  5> # smd solvation model
|  6> %cpcm
|  7> smd true
|  8> SMDsolvent "DMF"
|  9> end
| 10> # triple zeta basis on Co
| 11> %basis newgto Co "def2-TZVP" end end
| 12> # constrain CA and CB atoms of diHis (determined by backbone helix)
| 13> # and constrain Co in PCS defined position
| 14> %geom
| 15> Constraints
| 16> {C 0 C}
| 17> {C 1 C}
| 18> {C 2 C}
| 19> {C 13 C}
| 20> {C 14 C}
| 21> end
| 22> end
| 23>  * xyzfile 0 1 ../32Ne-28Nd-nta-co-min.xyz
| 24>
| 25>                          ****END OF INPUT****
 Total Charge           Charge          ....    0
 Multiplicity           Mult            ....    1
 Number of Electrons    NEL             ....  228
Dispersion correction           -0.110186466
FINAL SINGLE POINT ENERGY     -2730.278552027898
Dispersion correction            ... done
Dispersion correction           -0.110512778
FINAL SINGLE POINT ENERGY     -2730.336375977764
Dispersion correction            ... done
Dispersion correction           -0.110363574
FINAL SINGLE POINT ENERGY     -2730.368762682796
Dispersion correction            ... done
FINAL SINGLE POINT ENERGY     -2730.386871172560
FINAL SINGLE POINT ENERGY     -2730.400877705316
FINAL SINGLE POINT ENERGY     -2730.413588057492
FINAL SINGLE POINT ENERGY     -2730.422999145523
FINAL SINGLE POINT ENERGY     -2730.429769335412
FINAL SINGLE POINT ENERGY     -2730.433761896654
FINAL SINGLE POINT ENERGY     -2730.435788271003
FINAL SINGLE POINT ENERGY     -2730.439296454887
FINAL SINGLE POINT ENERGY     -2730.439299707546
FINAL SINGLE POINT ENERGY     -2730.439302584085
FINAL SINGLE POINT ENERGY     -2730.439305356320
FINAL SINGLE POINT ENERGY     -2730.439307822321
FINAL SINGLE POINT ENERGY     -2730.439310340888
FINAL SINGLE POINT ENERGY     -2730.439312758035
Dispersion correction            ... done
Dispersion correction           -0.106612164
FINAL SINGLE POINT ENERGY     -2730.439314744578
Dispersion correction            ... done
Dispersion correction           -0.106619079
FINAL SINGLE POINT ENERGY     -2730.439316099650
Dispersion correction            ... done
                    ***********************HURRAY********************

CARTESIAN COORDINATES (ANGSTROEM)
---------------------------------
  Co    -1.948160    2.320320  -12.079610
  C      2.846840    2.377320   -8.232610
  C      3.073840    2.488320   -9.741610
  C      2.403942    1.416103  -10.569854
  C      2.958818    0.198091  -10.954738
  N      1.100559    1.493521  -11.066057
  C      0.889407    0.357804  -11.734945
  N      1.985407   -0.450336  -11.686954
  H      4.163218    2.459636   -9.953359
  H      2.711862    3.477321  -10.097391
  H      3.944520   -0.244559  -10.775100
  H     -0.026006    0.091459  -12.279010
  H      2.075593   -1.369914  -12.129517
  C     -2.336160   -0.304680   -6.048610
  C     -1.981160   -0.891680   -7.415610
  C     -2.293041   -0.204955   -8.729673
  C     -2.047140    1.033978   -9.321054
  N     -2.747162   -0.996873   -9.778970
  C     -2.752114   -0.293569  -10.929830
  N     -2.329448    0.957300  -10.689531
  H     -2.444380   -1.899007   -7.488331
  H     -0.884774   -1.090224   -7.426372
  H     -3.013638   -1.984101   -9.693543
  H     -1.660994    1.954801   -8.874365
  H     -3.054115   -0.707895  -11.894802
  O     -2.065710    3.673125  -10.733437
  O     -1.266636    3.529050  -13.332662
  O     -1.987348    0.984800  -13.441557
  N     -3.707976    2.842961  -12.578200
  O     -3.445805    0.029340  -14.862664
  O     -1.878710    5.070681  -14.844714
  O     -3.646843    4.644163   -9.459396
  C     -2.151483    4.257407  -13.966007
  C     -3.312610    3.926879  -10.397503
  C     -3.181934    0.825148  -13.966007
  C     -4.350753    3.201390  -11.278886
  H     -4.660174    2.270836  -10.765997
  H     -5.248339    3.827320  -11.454940
  C     -4.286465    1.667165  -13.293503
  H     -5.041744    1.999740  -14.031210
  H     -4.791760    1.019254  -12.551052
  C     -3.584370    4.050399  -13.472526
  H     -3.874453    4.951729  -12.897785
  H     -4.286925    3.954570  -14.321508
  H     -1.844686    0.674999   -5.873403
  H     -1.995215   -0.999031   -5.255879
  H     -3.430032   -0.158503   -5.930722
  H      1.765981    2.422935   -7.982113
  H      3.353096    3.203416   -7.691314
  H      3.241331    1.419075   -7.834200

 Multiplicity           Mult            ....    1
 Number of Electrons    NEL             ....  228
 Basis Dimension        Dim             ....  533

ORBITAL ENERGIES
----------------

  NO   OCC          E(Eh)            E(eV)
   0   2.0000    -276.234640     -7516.7267
   1   2.0000     -32.374681      -880.9598
   2   2.0000     -28.103500      -764.7351
   3   2.0000     -28.100303      -764.6481
   4   2.0000     -28.099237      -764.6191
   5   2.0000     -18.781529      -511.0714
   6   2.0000     -18.780454      -511.0421
   7   2.0000     -18.777768      -510.9690
   8   2.0000     -18.746340      -510.1138
   9   2.0000     -18.744256      -510.0571
  10   2.0000     -18.743895      -510.0473
  11   2.0000     -14.114732      -384.0814
  12   2.0000     -14.082720      -383.2103
  13   2.0000     -14.065874      -382.7519
  14   2.0000     -14.054435      -382.4406
  15   2.0000     -14.002228      -381.0200
  16   2.0000     -10.017229      -272.5826
  17   2.0000     -10.014485      -272.5080
  18   2.0000     -10.014455      -272.5072
  19   2.0000      -9.985569      -271.7211
  20   2.0000      -9.962384      -271.0902
  21   2.0000      -9.961398      -271.0634
  22   2.0000      -9.960106      -271.0283
  23   2.0000      -9.959951      -271.0240
  24   2.0000      -9.959830      -271.0208
  25   2.0000      -9.945029      -270.6180
  26   2.0000      -9.934592      -270.3340
  27   2.0000      -9.930100      -270.2118
  28   2.0000      -9.927995      -270.1545
  29   2.0000      -9.911940      -269.7176
  30   2.0000      -9.908246      -269.6171
  31   2.0000      -9.901693      -269.4388
  32   2.0000      -3.566715       -97.0553
  33   2.0000      -2.297029       -62.5053
  34   2.0000      -2.289356       -62.2965
  35   2.0000      -2.287121       -62.2357
  36   2.0000      -0.965173       -26.2637
  37   2.0000      -0.957266       -26.0485
  38   2.0000      -0.955661       -26.0049
  39   2.0000      -0.945845       -25.7378
  40   2.0000      -0.919650       -25.0249
  41   2.0000      -0.893133       -24.3034
  42   2.0000      -0.875163       -23.8144
  43   2.0000      -0.874139       -23.7865
  44   2.0000      -0.870337       -23.6831
  45   2.0000      -0.811334       -22.0775
  46   2.0000      -0.783045       -21.3077
  47   2.0000      -0.716494       -19.4968
  48   2.0000      -0.699070       -19.0227
  49   2.0000      -0.685118       -18.6430
  50   2.0000      -0.679103       -18.4793
  51   2.0000      -0.663022       -18.0417
  52   2.0000      -0.647545       -17.6206
  53   2.0000      -0.587331       -15.9821
  54   2.0000      -0.579311       -15.7638
  55   2.0000      -0.570548       -15.5254
  56   2.0000      -0.564639       -15.3646
  57   2.0000      -0.542747       -14.7689
  58   2.0000      -0.536748       -14.6057
  59   2.0000      -0.509687       -13.8693
  60   2.0000      -0.506459       -13.7815
  61   2.0000      -0.495874       -13.4934
  62   2.0000      -0.490482       -13.3467
  63   2.0000      -0.480202       -13.0670
  64   2.0000      -0.477597       -12.9961
  65   2.0000      -0.466410       -12.6917
  66   2.0000      -0.460569       -12.5327
  67   2.0000      -0.454537       -12.3686
  68   2.0000      -0.423159       -11.5147
  69   2.0000      -0.416871       -11.3436
  70   2.0000      -0.415773       -11.3138
  71   2.0000      -0.412495       -11.2245
  72   2.0000      -0.411033       -11.1848
  73   2.0000      -0.405501       -11.0343
  74   2.0000      -0.398822       -10.8525
  75   2.0000      -0.395761       -10.7692
  76   2.0000      -0.393450       -10.7063
  77   2.0000      -0.390597       -10.6287
  78   2.0000      -0.384432       -10.4609
  79   2.0000      -0.383131       -10.4255
  80   2.0000      -0.382087       -10.3971
  81   2.0000      -0.373721       -10.1695
  82   2.0000      -0.370665       -10.0863
  83   2.0000      -0.365521        -9.9463
  84   2.0000      -0.364592        -9.9210
  85   2.0000      -0.361831        -9.8459
  86   2.0000      -0.352735        -9.5984
  87   2.0000      -0.348690        -9.4883
  88   2.0000      -0.342464        -9.3189
  89   2.0000      -0.340221        -9.2579
  90   2.0000      -0.334783        -9.1099
  91   2.0000      -0.321288        -8.7427
  92   2.0000      -0.316951        -8.6247
  93   2.0000      -0.310651        -8.4532
  94   2.0000      -0.302770        -8.2388
  95   2.0000      -0.301484        -8.2038
  96   2.0000      -0.291796        -7.9402
  97   2.0000      -0.285287        -7.7631
  98   2.0000      -0.281560        -7.6616
  99   2.0000      -0.274574        -7.4715
 100   2.0000      -0.269479        -7.3329
 101   2.0000      -0.261961        -7.1283
 102   2.0000      -0.251126        -6.8335
 103   2.0000      -0.242798        -6.6069
 104   2.0000      -0.240746        -6.5510
 105   2.0000      -0.236054        -6.4234
 106   2.0000      -0.224079        -6.0975
 107   2.0000      -0.221275        -6.0212
 108   2.0000      -0.215832        -5.8731
 109   2.0000      -0.211452        -5.7539
 110   2.0000      -0.203102        -5.5267
 111   2.0000      -0.200478        -5.4553
 112   2.0000      -0.199876        -5.4389
 113   2.0000      -0.187700        -5.1076
 114   0.0000      -0.150348        -4.0912
 115   0.0000      -0.103811        -2.8249
 116   0.0000      -0.034484        -0.9384
 117   0.0000      -0.027566        -0.7501
 118   0.0000      -0.014120        -0.3842

MULLIKEN ATOMIC CHARGES
-----------------------
   0 Co:   -0.003534
   1 C :   -0.075417
   2 C :    0.060741
   3 C :   -0.124008
   4 C :   -0.037167
   5 N :   -0.221968
   6 C :    0.056119
   7 N :   -0.033778
   8 H :    0.029408
   9 H :    0.026429
  10 H :    0.046233
  11 H :    0.075528
  12 H :    0.187023
  13 C :   -0.068368
  14 C :    0.015619
  15 C :   -0.016498
  16 C :   -0.014337
  17 N :   -0.044472
  18 C :    0.129476
  19 N :   -0.201166
  20 H :    0.042870
  21 H :    0.067577
  22 H :    0.199933
  23 H :    0.058249
  24 H :    0.102070
  25 O :   -0.248977
  26 O :   -0.233023
  27 O :   -0.264103
  28 N :   -0.322422
  29 O :   -0.246780
  30 O :   -0.246715
  31 O :   -0.245844
  32 C :    0.160613
  33 C :    0.117306
  34 C :    0.113820
  35 C :    0.113747
  36 H :    0.103743
  37 H :    0.086460
  38 C :    0.111539
  39 H :    0.087676
  40 H :    0.101222
  41 C :    0.086666
  42 H :    0.112462
  43 H :    0.095766
  44 H :    0.050569
  45 H :    0.050560
  46 H :    0.044488
  47 H :    0.039020
  48 H :    0.041753
  49 H :    0.033894
Sum of atomic charges:   -0.0000000

LOEWDIN ATOMIC CHARGES
----------------------
   0 Co:   -0.914904
   1 C :   -0.074910
   2 C :   -0.051962
   3 C :   -0.061212
   4 C :   -0.050542
   5 N :   -0.130596
   6 C :    0.006231
   7 N :    0.103491
   8 H :    0.041471
   9 H :    0.037674
  10 H :    0.042796
  11 H :    0.038071
  12 H :    0.125775
  13 C :   -0.069307
  14 C :   -0.048043
  15 C :   -0.011991
  16 C :   -0.009257
  17 N :    0.129103
  18 C :    0.079073
  19 N :    0.107320
  20 H :    0.050014
  21 H :    0.055976
  22 H :    0.134364
  23 H :    0.046107
  24 H :    0.054231
  25 O :   -0.024649
  26 O :    0.011222
  27 O :   -0.027665
  28 N :    0.191558
  29 O :   -0.214463
  30 O :   -0.217053
  31 O :   -0.214702
  32 C :    0.054872
  33 C :    0.049265
  34 C :    0.046850
  35 C :    0.041586
  36 H :    0.069553
  37 H :    0.056362
  38 C :    0.040830
  39 H :    0.058160
  40 H :    0.070801
  41 C :    0.041501
  42 H :    0.072689
  43 H :    0.063699
  44 H :    0.034709
  45 H :    0.041591
  46 H :    0.033196
  47 H :    0.029691
  48 H :    0.032683
  49 H :    0.028742

  Mayer bond orders larger than 0.100000
B(  0-Co,  5-N ) :   0.1715 B(  0-Co, 19-N ) :   0.5900 B(  0-Co, 25-O ) :   0.7944
B(  0-Co, 26-O ) :   0.8827 B(  0-Co, 27-O ) :   0.7359 B(  0-Co, 28-N ) :   0.7714
B(  1-C ,  2-C ) :   1.1174 B(  1-C , 47-H ) :   0.9657 B(  1-C , 48-H ) :   0.9611
B(  1-C , 49-H ) :   0.9670 B(  2-C ,  3-C ) :   1.0701 B(  2-C ,  8-H ) :   0.9193
B(  2-C ,  9-H ) :   0.9151 B(  3-C ,  4-C ) :   1.4700 B(  3-C ,  5-N ) :   1.3599
B(  4-C ,  7-N ) :   1.2186 B(  4-C , 10-H ) :   0.9873 B(  5-N ,  6-C ) :   1.4830
B(  6-C ,  7-N ) :   1.2895 B(  6-C , 11-H ) :   0.9311 B(  7-N , 12-H ) :   0.9091
B( 13-C , 14-C ) :   1.1199 B( 13-C , 44-H ) :   0.9674 B( 13-C , 45-H ) :   0.9580
B( 13-C , 46-H ) :   0.9674 B( 14-C , 15-C ) :   1.0527 B( 14-C , 20-H ) :   0.9131
B( 14-C , 21-H ) :   0.9167 B( 15-C , 16-C ) :   1.4787 B( 15-C , 17-N ) :   1.2254
B( 16-C , 19-N ) :   1.2309 B( 16-C , 23-H ) :   0.9848 B( 17-N , 18-C ) :   1.3157
B( 17-N , 22-H ) :   0.9028 B( 18-C , 19-N ) :   1.3970 B( 18-C , 24-H ) :   0.9515
B( 25-O , 31-O ) :   0.1114 B( 25-O , 33-C ) :   1.2887 B( 26-O , 30-O ) :   0.1098
B( 26-O , 32-C ) :   1.2631 B( 27-O , 29-O ) :   0.1121 B( 27-O , 34-C ) :   1.2952
B( 28-N , 35-C ) :   0.8746 B( 28-N , 38-C ) :   0.8751 B( 28-N , 41-C ) :   0.8618
B( 29-O , 34-C ) :   2.0351 B( 30-O , 32-C ) :   2.0396 B( 31-O , 33-C ) :   2.0462
B( 32-C , 41-C ) :   0.9389 B( 33-C , 35-C ) :   0.9203 B( 34-C , 38-C ) :   0.9383
B( 35-C , 36-H ) :   0.9077 B( 35-C , 37-H ) :   0.9236 B( 38-C , 39-H ) :   0.9209
B( 38-C , 40-H ) :   0.9107 B( 41-C , 42-H ) :   0.9146 B( 41-C , 43-H ) :   0.9189

Dispersion correction           -0.106623879
FINAL SINGLE POINT ENERGY     -2730.439316981984

DIPOLE MOMENT
-------------
                                X             Y             Z
Electronic contribution:    -12.35515       9.61486     -30.24132
Nuclear contribution   :     10.63901     -15.82449      33.56038
                        -----------------------------------------
Total Dipole Moment    :     -1.71614      -6.20963       3.31906
                        -----------------------------------------
Magnitude (a.u.)       :      7.24712
Magnitude (Debye)      :     18.42072

Rotational constants in cm-1:     0.006511     0.004456     0.003846
Rotational constants in MHz :   195.208755   133.579686   115.314875

                             ****ORCA TERMINATED NORMALLY****
TOTAL RUN TIME: 0 days 2 hours 26 minutes 0 seconds 240 msec
