                         Program Version 5.0.0 -  RELEASE  -
|  1> ! RI BP86 def2-SVP def2/J D3BJ TIGHTSCF Opt
|  2> ! CPCM
|  3> # memory
|  4> %maxcore 32000
|  5> # smd solvation model
|  6> %cpcm
|  7> smd true
|  8> SMDsolvent "DMF"
|  9> end
| 10> # triple zeta basis on Co
| 11> %basis newgto Co "def2-TZVP" end end
| 12> # constrain CA and CB atoms of diHis (determined by backbone helix)
| 13> # and constrain Co in PCS defined position
| 14> %geom
| 15> Constraints
| 16> {C 0 C}
| 17> {C 1 C}
| 18> {C 2 C}
| 19> {C 13 C}
| 20> {C 14 C}
| 21> end
| 22> end
| 23>  * xyzfile -1 2 ../32Ne-28Nd-nta-co-min.xyz
| 24>
| 25>                          ****END OF INPUT****
 Total Charge           Charge          ....   -1
 Multiplicity           Mult            ....    2
 Number of Electrons    NEL             ....  229
Dispersion correction           -0.110186466
FINAL SINGLE POINT ENERGY     -2730.377473095598
Dispersion correction            ... done
Dispersion correction           -0.110254043
FINAL SINGLE POINT ENERGY     -2730.434901130347
Dispersion correction            ... done
Dispersion correction           -0.109937527
FINAL SINGLE POINT ENERGY     -2730.471935950392
Dispersion correction            ... done
FINAL SINGLE POINT ENERGY     -2730.496587297480
FINAL SINGLE POINT ENERGY     -2730.517394449480
FINAL SINGLE POINT ENERGY     -2730.534197002023
FINAL SINGLE POINT ENERGY     -2730.547541890609
FINAL SINGLE POINT ENERGY     -2730.557388293291
FINAL SINGLE POINT ENERGY     -2730.563496442855
FINAL SINGLE POINT ENERGY     -2730.566657873656
FINAL SINGLE POINT ENERGY     -2730.571380880524
FINAL SINGLE POINT ENERGY     -2730.571420277755
FINAL SINGLE POINT ENERGY     -2730.571444074668
FINAL SINGLE POINT ENERGY     -2730.571457196059
FINAL SINGLE POINT ENERGY     -2730.571465686158
FINAL SINGLE POINT ENERGY     -2730.571472718926
FINAL SINGLE POINT ENERGY     -2730.571477770970
Dispersion correction            ... done
Dispersion correction           -0.105029950
FINAL SINGLE POINT ENERGY     -2730.571480663255
Dispersion correction            ... done
Dispersion correction           -0.105013888
FINAL SINGLE POINT ENERGY     -2730.571482636844
Dispersion correction            ... done
                    ***********************HURRAY********************

CARTESIAN COORDINATES (ANGSTROEM)
---------------------------------
  Co    -1.948160    2.320320  -12.079610
  C      2.846840    2.377320   -8.232610
  C      3.073840    2.488320   -9.741610
  C      2.450674    1.398712  -10.571213
  C      2.995962    0.179083  -10.965777
  N      1.163869    1.507414  -11.079312
  C      0.934874    0.392256  -11.773090
  N      2.018151   -0.437886  -11.723989
  H      4.166122    2.511707   -9.943354
  H      2.668716    3.457773  -10.103700
  H      3.971214   -0.285940  -10.784604
  H      0.017673    0.174971  -12.339658
  H      2.100440   -1.350218  -12.182424
  C     -2.336160   -0.304680   -6.048610
  C     -1.981160   -0.891680   -7.415610
  C     -2.284576   -0.210427   -8.733779
  C     -2.053867    1.032955   -9.327371
  N     -2.684211   -1.018766   -9.790321
  C     -2.670276   -0.310262  -10.947101
  N     -2.287334    0.951851  -10.704495
  H     -2.447560   -1.898408   -7.484343
  H     -0.885440   -1.097907   -7.417242
  H     -2.923555   -2.011840   -9.707854
  H     -1.719810    1.971143   -8.873275
  H     -2.922395   -0.732710  -11.923005
  O     -2.319744    3.691441  -10.762132
  O     -1.318865    3.620178  -13.347436
  O     -1.867167    0.958548  -13.449121
  N     -3.867691    2.767724  -12.807505
  O     -3.194362   -0.119066  -14.918345
  O     -1.973652    5.096227  -14.921042
  O     -4.085222    4.638202   -9.726692
  C     -2.210394    4.245538  -14.049401
  C     -3.596119    3.902579  -10.594736
  C     -3.011954    0.725310  -14.031218
  C     -4.541410    3.119531  -11.551069
  H     -4.822433    2.181531  -11.029882
  H     -5.472057    3.712744  -11.705658
  C     -4.233706    1.518441  -13.483532
  H     -4.955034    1.679756  -14.316051
  H     -4.729645    0.849511  -12.749872
  C     -3.684476    3.909439  -13.722233
  H     -4.126748    4.821599  -13.269084
  H     -4.226902    3.740829  -14.677492
  H     -1.841727    0.673371   -5.871119
  H     -2.000138   -0.999746   -5.254163
  H     -3.429730   -0.152822   -5.932118
  H      1.763766    2.374038   -7.986925
  H      3.311896    3.229190   -7.694207
  H      3.282949    1.440722   -7.825782

 Multiplicity           Mult            ....    2
 Number of Electrons    NEL             ....  229
 Basis Dimension        Dim             ....  533

ORBITAL ENERGIES
----------------
                 SPIN UP ORBITALS
  NO   OCC          E(Eh)            E(eV)
   0   1.0000    -276.138014     -7514.0974
   1   1.0000     -32.280121      -878.3868
   2   1.0000     -28.007786      -762.1306
   3   1.0000     -28.007079      -762.1114
   4   1.0000     -27.998365      -761.8742
   5   1.0000     -18.740820      -509.9637
   6   1.0000     -18.736099      -509.8352
   7   1.0000     -18.732805      -509.7455
   8   1.0000     -18.711550      -509.1671
   9   1.0000     -18.707990      -509.0703
  10   1.0000     -18.702259      -508.9143
  11   1.0000     -14.066028      -382.7561
  12   1.0000     -14.059143      -382.5687
  13   1.0000     -14.029221      -381.7545
  14   1.0000     -14.027692      -381.7129
  15   1.0000     -13.988586      -380.6488
  16   1.0000      -9.981072      -271.5988
  17   1.0000      -9.977653      -271.5057
  18   1.0000      -9.973098      -271.3818
  19   1.0000      -9.962635      -271.0971
  20   1.0000      -9.949393      -270.7368
  21   1.0000      -9.947636      -270.6889
  22   1.0000      -9.929018      -270.1823
  23   1.0000      -9.928325      -270.1635
  24   1.0000      -9.927094      -270.1300
  25   1.0000      -9.926589      -270.1162
  26   1.0000      -9.923855      -270.0418
  27   1.0000      -9.921939      -269.9897
  28   1.0000      -9.921713      -269.9835
  29   1.0000      -9.907111      -269.5862
  30   1.0000      -9.904695      -269.5205
  31   1.0000      -9.899004      -269.3656
  32   1.0000      -3.488363       -94.9232
  33   1.0000      -2.218053       -60.3563
  34   1.0000      -2.215279       -60.2808
  35   1.0000      -2.206064       -60.0301
  36   1.0000      -0.926471       -25.2106
  37   1.0000      -0.922267       -25.0962
  38   1.0000      -0.917508       -24.9667
  39   1.0000      -0.913034       -24.8449
  40   1.0000      -0.911753       -24.8101
  41   1.0000      -0.844172       -22.9711
  42   1.0000      -0.835932       -22.7469
  43   1.0000      -0.830736       -22.6055
  44   1.0000      -0.828177       -22.5358
  45   1.0000      -0.791485       -21.5374
  46   1.0000      -0.775745       -21.1091
  47   1.0000      -0.705160       -19.1884
  48   1.0000      -0.693525       -18.8718
  49   1.0000      -0.650516       -17.7014
  50   1.0000      -0.645813       -17.5735
  51   1.0000      -0.641489       -17.4558
  52   1.0000      -0.639413       -17.3993
  53   1.0000      -0.568419       -15.4675
  54   1.0000      -0.561451       -15.2779
  55   1.0000      -0.552735       -15.0407
  56   1.0000      -0.546453       -14.8697
  57   1.0000      -0.534734       -14.5509
  58   1.0000      -0.521377       -14.1874
  59   1.0000      -0.499893       -13.6028
  60   1.0000      -0.476004       -12.9527
  61   1.0000      -0.472574       -12.8594
  62   1.0000      -0.459942       -12.5157
  63   1.0000      -0.452438       -12.3115
  64   1.0000      -0.441698       -12.0192
  65   1.0000      -0.424138       -11.5414
  66   1.0000      -0.420269       -11.4361
  67   1.0000      -0.412538       -11.2257
  68   1.0000      -0.405934       -11.0460
  69   1.0000      -0.401030       -10.9126
  70   1.0000      -0.398209       -10.8358
  71   1.0000      -0.388952       -10.5839
  72   1.0000      -0.387229       -10.5370
  73   1.0000      -0.378905       -10.3105
  74   1.0000      -0.376909       -10.2562
  75   1.0000      -0.374014       -10.1774
  76   1.0000      -0.372276       -10.1302
  77   1.0000      -0.370322       -10.0770
  78   1.0000      -0.366796        -9.9810
  79   1.0000      -0.365674        -9.9505
  80   1.0000      -0.358502        -9.7553
  81   1.0000      -0.356391        -9.6979
  82   1.0000      -0.352723        -9.5981
  83   1.0000      -0.339738        -9.2448
  84   1.0000      -0.335531        -9.1303
  85   1.0000      -0.331580        -9.0228
  86   1.0000      -0.329865        -8.9761
  87   1.0000      -0.329170        -8.9572
  88   1.0000      -0.319529        -8.6948
  89   1.0000      -0.315230        -8.5778
  90   1.0000      -0.305654        -8.3173
  91   1.0000      -0.302795        -8.2395
  92   1.0000      -0.298888        -8.1331
  93   1.0000      -0.291319        -7.9272
  94   1.0000      -0.287587        -7.8256
  95   1.0000      -0.285440        -7.7672
  96   1.0000      -0.265195        -7.2163
  97   1.0000      -0.252554        -6.8723
  98   1.0000      -0.243088        -6.6148
  99   1.0000      -0.233045        -6.3415
 100   1.0000      -0.230315        -6.2672
 101   1.0000      -0.226200        -6.1552
 102   1.0000      -0.221102        -6.0165
 103   1.0000      -0.218421        -5.9435
 104   1.0000      -0.205308        -5.5867
 105   1.0000      -0.200904        -5.4669
 106   1.0000      -0.197502        -5.3743
 107   1.0000      -0.193188        -5.2569
 108   1.0000      -0.185399        -5.0450
 109   1.0000      -0.175841        -4.7849
 110   1.0000      -0.174082        -4.7370
 111   1.0000      -0.130595        -3.5537
 112   1.0000      -0.128588        -3.4990
 113   1.0000      -0.124363        -3.3841
 114   1.0000      -0.112876        -3.0715
 115   0.0000      -0.055027        -1.4974
 116   0.0000      -0.016470        -0.4482
 117   0.0000      -0.004704        -0.1280
 118   0.0000       0.003550         0.0966
 119   0.0000       0.004740         0.1290

                 SPIN DOWN ORBITALS
  NO   OCC          E(Eh)            E(eV)
   0   1.0000    -276.137683     -7514.0884
   1   1.0000     -32.262431      -877.9054
   2   1.0000     -27.998559      -761.8795
   3   1.0000     -27.997198      -761.8425
   4   1.0000     -27.977421      -761.3043
   5   1.0000     -18.741068      -509.9704
   6   1.0000     -18.736359      -509.8422
   7   1.0000     -18.732842      -509.7466
   8   1.0000     -18.711634      -509.1694
   9   1.0000     -18.708075      -509.0726
  10   1.0000     -18.702318      -508.9159
  11   1.0000     -14.066011      -382.7556
  12   1.0000     -14.059146      -382.5688
  13   1.0000     -14.027887      -381.7182
  14   1.0000     -14.026917      -381.6918
  15   1.0000     -13.988397      -380.6436
  16   1.0000      -9.981004      -271.5969
  17   1.0000      -9.977597      -271.5042
  18   1.0000      -9.973012      -271.3795
  19   1.0000      -9.962670      -271.0980
  20   1.0000      -9.949371      -270.7361
  21   1.0000      -9.947639      -270.6890
  22   1.0000      -9.929011      -270.1821
  23   1.0000      -9.928419      -270.1660
  24   1.0000      -9.927091      -270.1299
  25   1.0000      -9.926683      -270.1188
  26   1.0000      -9.923942      -270.0442
  27   1.0000      -9.921939      -269.9897
  28   1.0000      -9.921689      -269.9829
  29   1.0000      -9.907111      -269.5862
  30   1.0000      -9.904696      -269.5205
  31   1.0000      -9.899004      -269.3656
  32   1.0000      -3.450922       -93.9044
  33   1.0000      -2.190945       -59.6186
  34   1.0000      -2.187393       -59.5220
  35   1.0000      -2.150445       -58.5166
  36   1.0000      -0.926518       -25.2118
  37   1.0000      -0.922366       -25.0989
  38   1.0000      -0.917709       -24.9721
  39   1.0000      -0.913088       -24.8464
  40   1.0000      -0.911704       -24.8087
  41   1.0000      -0.843421       -22.9507
  42   1.0000      -0.836029       -22.7495
  43   1.0000      -0.830748       -22.6058
  44   1.0000      -0.826710       -22.4959
  45   1.0000      -0.791551       -21.5392
  46   1.0000      -0.775651       -21.1065
  47   1.0000      -0.705170       -19.1886
  48   1.0000      -0.693503       -18.8712
  49   1.0000      -0.650534       -17.7019
  50   1.0000      -0.645483       -17.5645
  51   1.0000      -0.641456       -17.4549
  52   1.0000      -0.639062       -17.3898
  53   1.0000      -0.568436       -15.4679
  54   1.0000      -0.561439       -15.2775
  55   1.0000      -0.552716       -15.0402
  56   1.0000      -0.545540       -14.8449
  57   1.0000      -0.534658       -14.5488
  58   1.0000      -0.521400       -14.1880
  59   1.0000      -0.499774       -13.5996
  60   1.0000      -0.475984       -12.9522
  61   1.0000      -0.472526       -12.8581
  62   1.0000      -0.458648       -12.4804
  63   1.0000      -0.451250       -12.2791
  64   1.0000      -0.441152       -12.0044
  65   1.0000      -0.423918       -11.5354
  66   1.0000      -0.419167       -11.4061
  67   1.0000      -0.411787       -11.2053
  68   1.0000      -0.405824       -11.0430
  69   1.0000      -0.400929       -10.9098
  70   1.0000      -0.398165       -10.8346
  71   1.0000      -0.388885       -10.5821
  72   1.0000      -0.387202       -10.5363
  73   1.0000      -0.378876       -10.3097
  74   1.0000      -0.376827       -10.2540
  75   1.0000      -0.373979       -10.1765
  76   1.0000      -0.371808       -10.1174
  77   1.0000      -0.369838       -10.0638
  78   1.0000      -0.366775        -9.9805
  79   1.0000      -0.365616        -9.9489
  80   1.0000      -0.358281        -9.7493
  81   1.0000      -0.356301        -9.6954
  82   1.0000      -0.352723        -9.5981
  83   1.0000      -0.339663        -9.2427
  84   1.0000      -0.335440        -9.1278
  85   1.0000      -0.331466        -9.0196
  86   1.0000      -0.329775        -8.9736
  87   1.0000      -0.328882        -8.9493
  88   1.0000      -0.318458        -8.6657
  89   1.0000      -0.314938        -8.5699
  90   1.0000      -0.305199        -8.3049
  91   1.0000      -0.302516        -8.2319
  92   1.0000      -0.298865        -8.1325
  93   1.0000      -0.290355        -7.9010
  94   1.0000      -0.287571        -7.8252
  95   1.0000      -0.285336        -7.7644
  96   1.0000      -0.264408        -7.1949
  97   1.0000      -0.243804        -6.6342
  98   1.0000      -0.242631        -6.6023
  99   1.0000      -0.230007        -6.2588
 100   1.0000      -0.227498        -6.1905
 101   1.0000      -0.224110        -6.0983
 102   1.0000      -0.219468        -5.9720
 103   1.0000      -0.218192        -5.9373
 104   1.0000      -0.205297        -5.5864
 105   1.0000      -0.200844        -5.4652
 106   1.0000      -0.197460        -5.3732
 107   1.0000      -0.193173        -5.2565
 108   1.0000      -0.182870        -4.9762
 109   1.0000      -0.174164        -4.7393
 110   1.0000      -0.172990        -4.7073
 111   1.0000      -0.114437        -3.1140
 112   1.0000      -0.113319        -3.0836
 113   1.0000      -0.109080        -2.9682
 114   0.0000      -0.044918        -1.2223
 115   0.0000      -0.032540        -0.8855
 116   0.0000      -0.015123        -0.4115
 117   0.0000      -0.004625        -0.1259
 118   0.0000       0.004273         0.1163

MULLIKEN ATOMIC CHARGES AND SPIN POPULATIONS
--------------------------------------------
   0 Co:   -0.058129    0.931996
   1 C :   -0.075698    0.000001
   2 C :    0.063070   -0.000041
   3 C :   -0.125460    0.000690
   4 C :   -0.048146    0.000249
   5 N :   -0.218624    0.003852
   6 C :    0.048455    0.001301
   7 N :   -0.039905   -0.000219
   8 H :    0.025369   -0.000007
   9 H :    0.021365    0.000003
  10 H :    0.040278    0.000395
  11 H :    0.066767   -0.000407
  12 H :    0.182221    0.000073
  13 C :   -0.069051    0.000022
  14 C :    0.010468    0.000006
  15 C :   -0.025348    0.000064
  16 C :   -0.042644   -0.001247
  17 N :   -0.054319    0.000929
  18 C :    0.093914   -0.001158
  19 N :   -0.188434   -0.009070
  20 H :    0.037534   -0.000045
  21 H :    0.060541   -0.000061
  22 H :    0.187724   -0.000080
  23 H :    0.037944   -0.000071
  24 H :    0.081274    0.000156
  25 O :   -0.269145   -0.011472
  26 O :   -0.259743   -0.002146
  27 O :   -0.284580   -0.010786
  28 N :   -0.337473    0.095417
  29 O :   -0.302542   -0.003076
  30 O :   -0.315540   -0.001894
  31 O :   -0.302687   -0.003139
  32 C :    0.117601    0.002947
  33 C :    0.082447    0.002802
  34 C :    0.078188    0.002926
  35 C :    0.111833   -0.003539
  36 H :    0.053920    0.000268
  37 H :    0.018159    0.002107
  38 C :    0.109402   -0.002681
  39 H :    0.024157    0.002299
  40 H :    0.049965   -0.000030
  41 C :    0.075343   -0.000814
  42 H :    0.055089    0.000930
  43 H :    0.037710    0.002586
  44 H :    0.048084   -0.000015
  45 H :    0.047301   -0.000003
  46 H :    0.041648   -0.000012
  47 H :    0.036970   -0.000004
  48 H :    0.040001   -0.000002
  49 H :    0.032726    0.000003
Sum of atomic charges         :   -1.0000000

LOEWDIN ATOMIC CHARGES AND SPIN POPULATIONS
-------------------------------------------
   0 Co:   -0.998403    0.915605
   1 C :   -0.075456   -0.000006
   2 C :   -0.053958    0.000015
   3 C :   -0.068037    0.000782
   4 C :   -0.059281    0.000279
   5 N :   -0.138866    0.005726
   6 C :    0.003435    0.001612
   7 N :    0.097261   -0.000072
   8 H :    0.038762   -0.000003
   9 H :    0.035900   -0.000005
  10 H :    0.039412    0.000287
  11 H :    0.036136    0.000607
  12 H :    0.122102    0.000056
  13 C :   -0.071546   -0.000029
  14 C :   -0.051249   -0.000006
  15 C :   -0.029962   -0.000160
  16 C :   -0.029267   -0.000297
  17 N :    0.111210    0.000763
  18 C :    0.050710   -0.000961
  19 N :    0.119433   -0.004269
  20 H :    0.046771   -0.000023
  21 H :    0.051433   -0.000037
  22 H :    0.125595   -0.000038
  23 H :    0.037249    0.000098
  24 H :    0.044608    0.000068
  25 O :   -0.050660   -0.008455
  26 O :   -0.034069    0.000747
  27 O :   -0.050994   -0.007889
  28 N :    0.058018    0.093210
  29 O :   -0.271986   -0.003091
  30 O :   -0.288872   -0.002008
  31 O :   -0.274659   -0.003115
  32 C :    0.023525    0.002805
  33 C :    0.027539    0.001518
  34 C :    0.024392    0.001782
  35 C :    0.014256   -0.001198
  36 H :    0.050101   -0.000030
  37 H :    0.018796    0.001986
  38 C :    0.012755   -0.000838
  39 H :    0.024124    0.001962
  40 H :    0.049810    0.000011
  41 C :    0.008152    0.000002
  42 H :    0.046835    0.000678
  43 H :    0.035336    0.001944
  44 H :    0.033416   -0.000006
  45 H :    0.039911   -0.000003
  46 H :    0.031709   -0.000005
  47 H :    0.028711   -0.000001
  48 H :    0.031760   -0.000000
  49 H :    0.028104    0.000002

  Mayer bond orders larger than 0.100000
B(  0-Co,  5-N ) :   0.1328 B(  0-Co, 19-N ) :   0.5650 B(  0-Co, 25-O ) :   0.7181
B(  0-Co, 26-O ) :   0.7648 B(  0-Co, 27-O ) :   0.6425 B(  0-Co, 28-N ) :   0.4031
B(  1-C ,  2-C ) :   1.1176 B(  1-C , 47-H ) :   0.9651 B(  1-C , 48-H ) :   0.9613
B(  1-C , 49-H ) :   0.9672 B(  2-C ,  3-C ) :   1.0672 B(  2-C ,  8-H ) :   0.9203
B(  2-C ,  9-H ) :   0.9135 B(  3-C ,  4-C ) :   1.4599 B(  3-C ,  5-N ) :   1.3757
B(  4-C ,  7-N ) :   1.2144 B(  4-C , 10-H ) :   0.9888 B(  5-N ,  6-C ) :   1.4949
B(  6-C ,  7-N ) :   1.2789 B(  6-C , 11-H ) :   0.9268 B(  7-N , 12-H ) :   0.9111
B( 13-C , 14-C ) :   1.1193 B( 13-C , 44-H ) :   0.9674 B( 13-C , 45-H ) :   0.9583
B( 13-C , 46-H ) :   0.9674 B( 14-C , 15-C ) :   1.0511 B( 14-C , 20-H ) :   0.9150
B( 14-C , 21-H ) :   0.9185 B( 15-C , 16-C ) :   1.4608 B( 15-C , 17-N ) :   1.2286
B( 16-C , 19-N ) :   1.2483 B( 16-C , 23-H ) :   0.9904 B( 17-N , 18-C ) :   1.2725
B( 17-N , 22-H ) :   0.9076 B( 18-C , 19-N ) :   1.4207 B( 18-C , 24-H ) :   0.9550
B( 25-O , 31-O ) :   0.1157 B( 25-O , 33-C ) :   1.3752 B( 26-O , 30-O ) :   0.1163
B( 26-O , 32-C ) :   1.3755 B( 27-O , 29-O ) :   0.1158 B( 27-O , 34-C ) :   1.3722
B( 28-N , 35-C ) :   0.9403 B( 28-N , 38-C ) :   0.9471 B( 28-N , 41-C ) :   0.9306
B( 29-O , 34-C ) :   1.9831 B( 30-O , 32-C ) :   1.9754 B( 31-O , 33-C ) :   1.9961
B( 32-C , 41-C ) :   0.9039 B( 33-C , 35-C ) :   0.9016 B( 34-C , 38-C ) :   0.9201
B( 35-C , 36-H ) :   0.9119 B( 35-C , 37-H ) :   0.9238 B( 38-C , 39-H ) :   0.9200
B( 38-C , 40-H ) :   0.9130 B( 41-C , 42-H ) :   0.9224 B( 41-C , 43-H ) :   0.9217

Dispersion correction           -0.104998157
FINAL SINGLE POINT ENERGY     -2730.571484268215

DIPOLE MOMENT
-------------
                                X             Y             Z
Electronic contribution:    -10.00132       8.82325     -27.98795
Nuclear contribution   :     10.77629     -16.41152      32.79095
                        -----------------------------------------
Total Dipole Moment    :      0.77497      -7.58827       4.80300
                        -----------------------------------------
Magnitude (a.u.)       :      9.01395
Magnitude (Debye)      :     22.91163

Rotational constants in cm-1:     0.006465     0.004343     0.003742
Rotational constants in MHz :   193.803155   130.200845   112.191763

                             ****ORCA TERMINATED NORMALLY****
TOTAL RUN TIME: 0 days 2 hours 45 minutes 58 seconds 825 msec
