                         Program Version 5.0.0 -  RELEASE  -
|  1> ! RI BP86 def2-SVP def2/J D3BJ TIGHTSCF Opt
|  2> ! CPCM
|  3> # memory
|  4> %maxcore 32000
|  5> # smd solvation model
|  6> %cpcm
|  7> smd true
|  8> SMDsolvent "water"
|  9> end
| 10> # triple zeta basis on Co
| 11> %basis newgto Co "def2-TZVP" end end
| 12> # constrain CA and CB atoms of diHis (determined by backbone helix)
| 13> # and constrain Co in PCS defined position
| 14> %geom
| 15> Constraints
| 16> {C 0 C}
| 17> {C 1 C}
| 18> {C 2 C}
| 19> {C 13 C}
| 20> {C 14 C}
| 21> end
| 22> end
| 23>  * xyzfile -1 2 ../32Ne-28Nd-nta-co-min.xyz
| 24>
| 25>                          ****END OF INPUT****
 Total Charge           Charge          ....   -1
 Multiplicity           Mult            ....    2
 Number of Electrons    NEL             ....  229
Dispersion correction           -0.110186466
FINAL SINGLE POINT ENERGY     -2730.401123157492
Dispersion correction            ... done
Dispersion correction           -0.110229397
FINAL SINGLE POINT ENERGY     -2730.453731947910
Dispersion correction            ... done
Dispersion correction           -0.109913342
FINAL SINGLE POINT ENERGY     -2730.489039197076
Dispersion correction            ... done
FINAL SINGLE POINT ENERGY     -2730.512935668990
FINAL SINGLE POINT ENERGY     -2730.533148413811
FINAL SINGLE POINT ENERGY     -2730.548990722124
FINAL SINGLE POINT ENERGY     -2730.561338285370
FINAL SINGLE POINT ENERGY     -2730.570030102536
FINAL SINGLE POINT ENERGY     -2730.574877105043
FINAL SINGLE POINT ENERGY     -2730.577058273512
FINAL SINGLE POINT ENERGY     -2730.580587699128
FINAL SINGLE POINT ENERGY     -2730.580595597185
FINAL SINGLE POINT ENERGY     -2730.580607162921
FINAL SINGLE POINT ENERGY     -2730.580621418752
FINAL SINGLE POINT ENERGY     -2730.580634024235
FINAL SINGLE POINT ENERGY     -2730.580646435869
FINAL SINGLE POINT ENERGY     -2730.580654186033
Dispersion correction            ... done
Dispersion correction           -0.105651172
FINAL SINGLE POINT ENERGY     -2730.580658515084
Dispersion correction            ... done
Dispersion correction           -0.105668748
FINAL SINGLE POINT ENERGY     -2730.580661287389
Dispersion correction            ... done
                    ***********************HURRAY********************

CARTESIAN COORDINATES (ANGSTROEM)
---------------------------------
  Co    -1.948160    2.320320  -12.079610
  C      2.846840    2.377320   -8.232610
  C      3.073840    2.488320   -9.741610
  C      2.399168    1.386142  -10.513699
  C      2.845715    0.082445  -10.705975
  N      1.137087    1.526041  -11.080406
  C      0.829792    0.336209  -11.597577
  N      1.835500   -0.564289  -11.394616
  H      4.163746    2.472017   -9.953868
  H      2.691481    3.462008  -10.112778
  H      3.769847   -0.428442  -10.416100
  H     -0.091770    0.078346  -12.133234
  H      1.844889   -1.539086  -11.708551
  C     -2.336160   -0.304680   -6.048610
  C     -1.981160   -0.891680   -7.415610
  C     -2.297371   -0.194100   -8.721935
  C     -1.979358    1.025708   -9.320117
  N     -2.849218   -0.943371   -9.754048
  C     -2.840481   -0.223448  -10.902905
  N     -2.315636    0.990255  -10.678469
  H     -2.445328   -1.897997   -7.491438
  H     -0.885097   -1.089750   -7.425130
  H     -3.182299   -1.908763   -9.666701
  H     -1.506626    1.906891   -8.876042
  H     -3.202275   -0.615626  -11.856952
  O     -1.779742    3.688843  -10.721882
  O     -1.299804    3.538986  -13.427631
  O     -2.393540    1.060331  -13.480167
  N     -3.837507    3.159936  -12.438026
  O     -4.157807    0.323830  -14.664367
  O     -1.930067    5.144541  -14.872429
  O     -3.073793    4.972913   -9.404877
  C     -2.183449    4.325054  -13.967282
  C     -2.935004    4.164165  -10.341563
  C     -3.660004    1.068340  -13.798975
  C     -4.178351    3.635428  -11.090129
  H     -4.565929    2.781537  -10.497570
  H     -4.962125    4.424868  -11.094047
  C     -4.570380    2.010204  -12.980963
  H     -5.440554    2.310093  -13.604951
  H     -4.960636    1.404680  -12.136953
  C     -3.616608    4.241410  -13.417068
  H     -3.839212    5.224010  -12.950878
  H     -4.312015    4.141853  -14.276647
  H     -1.848459    0.677460   -5.878127
  H     -1.992533   -0.994574   -5.253411
  H     -3.430239   -0.161353   -5.931325
  H      1.765153    2.408820   -7.985826
  H      3.342031    3.206428   -7.685562
  H      3.250742    1.421780   -7.838396

 Multiplicity           Mult            ....    2
 Number of Electrons    NEL             ....  229
 Basis Dimension        Dim             ....  533

ORBITAL ENERGIES
----------------
                 SPIN UP ORBITALS
  NO   OCC          E(Eh)            E(eV)
   0   1.0000    -276.160353     -7514.7052
   1   1.0000     -32.302346      -878.9915
   2   1.0000     -28.030141      -762.7389
   3   1.0000     -28.029615      -762.7246
   4   1.0000     -28.020196      -762.4683
   5   1.0000     -18.767889      -510.7002
   6   1.0000     -18.766452      -510.6611
   7   1.0000     -18.765112      -510.6247
   8   1.0000     -18.740788      -509.9628
   9   1.0000     -18.739462      -509.9267
  10   1.0000     -18.736037      -509.8335
  11   1.0000     -14.071731      -382.9113
  12   1.0000     -14.062283      -382.6542
  13   1.0000     -14.047223      -382.2444
  14   1.0000     -14.038222      -381.9994
  15   1.0000     -13.993918      -380.7939
  16   1.0000     -10.008458      -272.3440
  17   1.0000     -10.007342      -272.3136
  18   1.0000     -10.005140      -272.2537
  19   1.0000      -9.970380      -271.3078
  20   1.0000      -9.955514      -270.9033
  21   1.0000      -9.952685      -270.8263
  22   1.0000      -9.942882      -270.5596
  23   1.0000      -9.942413      -270.5468
  24   1.0000      -9.940636      -270.4985
  25   1.0000      -9.933502      -270.3043
  26   1.0000      -9.931010      -270.2365
  27   1.0000      -9.924786      -270.0672
  28   1.0000      -9.923452      -270.0309
  29   1.0000      -9.908897      -269.6348
  30   1.0000      -9.905519      -269.5429
  31   1.0000      -9.900095      -269.3953
  32   1.0000      -3.510672       -95.5302
  33   1.0000      -2.240390       -60.9641
  34   1.0000      -2.238371       -60.9092
  35   1.0000      -2.227647       -60.6174
  36   1.0000      -0.951322       -25.8868
  37   1.0000      -0.946655       -25.7598
  38   1.0000      -0.944003       -25.6876
  39   1.0000      -0.932237       -25.3674
  40   1.0000      -0.915200       -24.9039
  41   1.0000      -0.869398       -23.6575
  42   1.0000      -0.862782       -23.4775
  43   1.0000      -0.860065       -23.4036
  44   1.0000      -0.849183       -23.1075
  45   1.0000      -0.798801       -21.7365
  46   1.0000      -0.779498       -21.2112
  47   1.0000      -0.709046       -19.2941
  48   1.0000      -0.697182       -18.9713
  49   1.0000      -0.665232       -18.1019
  50   1.0000      -0.659601       -17.9487
  51   1.0000      -0.654560       -17.8115
  52   1.0000      -0.643651       -17.5146
  53   1.0000      -0.571480       -15.5508
  54   1.0000      -0.567869       -15.4525
  55   1.0000      -0.562935       -15.3183
  56   1.0000      -0.558932       -15.2093
  57   1.0000      -0.538438       -14.6516
  58   1.0000      -0.528101       -14.3704
  59   1.0000      -0.503171       -13.6920
  60   1.0000      -0.483863       -13.1666
  61   1.0000      -0.479977       -13.0608
  62   1.0000      -0.477287       -12.9876
  63   1.0000      -0.475974       -12.9519
  64   1.0000      -0.464266       -12.6333
  65   1.0000      -0.446716       -12.1557
  66   1.0000      -0.444796       -12.1035
  67   1.0000      -0.437436       -11.9032
  68   1.0000      -0.412823       -11.2335
  69   1.0000      -0.407249       -11.0818
  70   1.0000      -0.402380       -10.9493
  71   1.0000      -0.399705       -10.8765
  72   1.0000      -0.397114       -10.8060
  73   1.0000      -0.395739       -10.7686
  74   1.0000      -0.391363       -10.6495
  75   1.0000      -0.390268       -10.6197
  76   1.0000      -0.386180       -10.5085
  77   1.0000      -0.379817       -10.3353
  78   1.0000      -0.378792       -10.3075
  79   1.0000      -0.377281       -10.2663
  80   1.0000      -0.372098       -10.1253
  81   1.0000      -0.371156       -10.0997
  82   1.0000      -0.367744       -10.0068
  83   1.0000      -0.360938        -9.8216
  84   1.0000      -0.360629        -9.8132
  85   1.0000      -0.358958        -9.7677
  86   1.0000      -0.340134        -9.2555
  87   1.0000      -0.336843        -9.1660
  88   1.0000      -0.331501        -9.0206
  89   1.0000      -0.329203        -8.9581
  90   1.0000      -0.326162        -8.8753
  91   1.0000      -0.306781        -8.3479
  92   1.0000      -0.305683        -8.3180
  93   1.0000      -0.301242        -8.1972
  94   1.0000      -0.295248        -8.0341
  95   1.0000      -0.290079        -7.8935
  96   1.0000      -0.279481        -7.6051
  97   1.0000      -0.271778        -7.3954
  98   1.0000      -0.261079        -7.1043
  99   1.0000      -0.259128        -7.0512
 100   1.0000      -0.248660        -6.7664
 101   1.0000      -0.247708        -6.7405
 102   1.0000      -0.246927        -6.7192
 103   1.0000      -0.234974        -6.3940
 104   1.0000      -0.234238        -6.3739
 105   1.0000      -0.229348        -6.2409
 106   1.0000      -0.216564        -5.8930
 107   1.0000      -0.209887        -5.7113
 108   1.0000      -0.207309        -5.6412
 109   1.0000      -0.205920        -5.6034
 110   1.0000      -0.195760        -5.3269
 111   1.0000      -0.155072        -4.2197
 112   1.0000      -0.150074        -4.0837
 113   1.0000      -0.147858        -4.0234
 114   1.0000      -0.133832        -3.6418
 115   0.0000      -0.079086        -2.1520
 116   0.0000      -0.022898        -0.6231
 117   0.0000      -0.020591        -0.5603
 118   0.0000      -0.009130        -0.2484
 119   0.0000      -0.006624        -0.1802

                 SPIN DOWN ORBITALS
  NO   OCC          E(Eh)            E(eV)
   0   1.0000    -276.160024     -7514.6963
   1   1.0000     -32.284756      -878.5129
   2   1.0000     -28.021201      -762.4957
   3   1.0000     -28.019623      -762.4527
   4   1.0000     -27.999300      -761.8997
   5   1.0000     -18.768131      -510.7068
   6   1.0000     -18.766675      -510.6672
   7   1.0000     -18.765154      -510.6258
   8   1.0000     -18.740869      -509.9650
   9   1.0000     -18.739538      -509.9288
  10   1.0000     -18.736093      -509.8350
  11   1.0000     -14.071716      -382.9109
  12   1.0000     -14.062283      -382.6542
  13   1.0000     -14.044815      -382.1788
  14   1.0000     -14.038427      -382.0050
  15   1.0000     -13.993749      -380.7893
  16   1.0000     -10.008399      -272.3424
  17   1.0000     -10.007286      -272.3121
  18   1.0000     -10.005055      -272.2514
  19   1.0000      -9.970376      -271.3077
  20   1.0000      -9.955466      -270.9020
  21   1.0000      -9.952690      -270.8265
  22   1.0000      -9.942979      -270.5622
  23   1.0000      -9.942510      -270.5495
  24   1.0000      -9.940725      -270.5009
  25   1.0000      -9.933497      -270.3042
  26   1.0000      -9.931003      -270.2363
  27   1.0000      -9.924765      -270.0666
  28   1.0000      -9.923453      -270.0309
  29   1.0000      -9.908896      -269.6348
  30   1.0000      -9.905519      -269.5429
  31   1.0000      -9.900095      -269.3953
  32   1.0000      -3.473477       -94.5181
  33   1.0000      -2.214293       -60.2540
  34   1.0000      -2.210123       -60.1405
  35   1.0000      -2.172086       -59.1055
  36   1.0000      -0.951396       -25.8888
  37   1.0000      -0.946873       -25.7657
  38   1.0000      -0.944076       -25.6896
  39   1.0000      -0.932264       -25.3682
  40   1.0000      -0.915143       -24.9023
  41   1.0000      -0.869120       -23.6500
  42   1.0000      -0.863056       -23.4850
  43   1.0000      -0.860174       -23.4065
  44   1.0000      -0.846755       -23.0414
  45   1.0000      -0.798871       -21.7384
  46   1.0000      -0.779408       -21.2088
  47   1.0000      -0.709051       -19.2943
  48   1.0000      -0.697157       -18.9706
  49   1.0000      -0.664894       -18.0927
  50   1.0000      -0.659255       -17.9393
  51   1.0000      -0.654555       -17.8113
  52   1.0000      -0.643606       -17.5134
  53   1.0000      -0.571482       -15.5508
  54   1.0000      -0.566948       -15.4274
  55   1.0000      -0.562921       -15.3179
  56   1.0000      -0.558911       -15.2087
  57   1.0000      -0.538350       -14.6492
  58   1.0000      -0.528106       -14.3705
  59   1.0000      -0.503016       -13.6878
  60   1.0000      -0.483347       -13.1525
  61   1.0000      -0.479220       -13.0402
  62   1.0000      -0.477180       -12.9847
  63   1.0000      -0.474843       -12.9211
  64   1.0000      -0.463858       -12.6222
  65   1.0000      -0.445783       -12.1304
  66   1.0000      -0.444201       -12.0873
  67   1.0000      -0.436485       -11.8774
  68   1.0000      -0.412804       -11.2330
  69   1.0000      -0.407140       -11.0788
  70   1.0000      -0.402320       -10.9477
  71   1.0000      -0.399709       -10.8766
  72   1.0000      -0.396893       -10.8000
  73   1.0000      -0.395217       -10.7544
  74   1.0000      -0.391330       -10.6486
  75   1.0000      -0.390237       -10.6189
  76   1.0000      -0.385980       -10.5030
  77   1.0000      -0.379843       -10.3361
  78   1.0000      -0.378658       -10.3038
  79   1.0000      -0.377126       -10.2621
  80   1.0000      -0.372086       -10.1250
  81   1.0000      -0.371099       -10.0981
  82   1.0000      -0.367696       -10.0055
  83   1.0000      -0.360852        -9.8193
  84   1.0000      -0.360218        -9.8020
  85   1.0000      -0.358757        -9.7623
  86   1.0000      -0.339917        -9.2496
  87   1.0000      -0.336575        -9.1587
  88   1.0000      -0.331489        -9.0203
  89   1.0000      -0.327764        -8.9189
  90   1.0000      -0.325278        -8.8513
  91   1.0000      -0.306371        -8.3368
  92   1.0000      -0.305611        -8.3161
  93   1.0000      -0.301220        -8.1966
  94   1.0000      -0.294600        -8.0165
  95   1.0000      -0.290064        -7.8931
  96   1.0000      -0.273460        -7.4412
  97   1.0000      -0.269983        -7.3466
  98   1.0000      -0.259773        -7.0688
  99   1.0000      -0.255826        -6.9614
 100   1.0000      -0.247676        -6.7396
 101   1.0000      -0.246926        -6.7192
 102   1.0000      -0.244067        -6.6414
 103   1.0000      -0.234774        -6.3885
 104   1.0000      -0.233647        -6.3579
 105   1.0000      -0.229199        -6.2368
 106   1.0000      -0.214367        -5.8332
 107   1.0000      -0.207212        -5.6385
 108   1.0000      -0.206001        -5.6056
 109   1.0000      -0.205610        -5.5949
 110   1.0000      -0.195738        -5.3263
 111   1.0000      -0.137242        -3.7345
 112   1.0000      -0.135992        -3.7005
 113   1.0000      -0.133035        -3.6201
 114   0.0000      -0.065552        -1.7838
 115   0.0000      -0.056656        -1.5417
 116   0.0000      -0.021832        -0.5941
 117   0.0000      -0.020391        -0.5549
 118   0.0000      -0.009037        -0.2459

MULLIKEN ATOMIC CHARGES AND SPIN POPULATIONS
--------------------------------------------
   0 Co:   -0.094913    0.922264
   1 C :   -0.080201   -0.000006
   2 C :    0.069820   -0.000059
   3 C :   -0.131829    0.000559
   4 C :   -0.041839    0.000208
   5 N :   -0.217816    0.003666
   6 C :    0.054998    0.002844
   7 N :   -0.037997   -0.000307
   8 H :    0.029383   -0.000008
   9 H :    0.021128    0.000064
  10 H :    0.043204    0.000427
  11 H :    0.081524   -0.000178
  12 H :    0.185106    0.000052
  13 C :   -0.069865    0.000015
  14 C :    0.019480   -0.000023
  15 C :   -0.030605   -0.000228
  16 C :   -0.031988   -0.000342
  17 N :   -0.049836    0.000770
  18 C :    0.105541    0.001031
  19 N :   -0.197492   -0.009818
  20 H :    0.038658   -0.000049
  21 H :    0.061645   -0.000012
  22 H :    0.193161   -0.000055
  23 H :    0.040954    0.000001
  24 H :    0.089159    0.000019
  25 O :   -0.304506   -0.009668
  26 O :   -0.300863   -0.002419
  27 O :   -0.312245   -0.010540
  28 N :   -0.352265    0.100846
  29 O :   -0.361316   -0.002948
  30 O :   -0.371002   -0.001833
  31 O :   -0.361592   -0.002792
  32 C :    0.139054    0.002642
  33 C :    0.103458    0.002527
  34 C :    0.096917    0.002552
  35 C :    0.120589   -0.003490
  36 H :    0.078299    0.000176
  37 H :    0.044432    0.002375
  38 C :    0.125577   -0.003132
  39 H :    0.044810    0.002341
  40 H :    0.076151    0.000035
  41 C :    0.083884   -0.000784
  42 H :    0.079758    0.001112
  43 H :    0.068078    0.002170
  44 H :    0.048792   -0.000016
  45 H :    0.048526   -0.000001
  46 H :    0.042509   -0.000005
  47 H :    0.038985    0.000019
  48 H :    0.039841   -0.000003
  49 H :    0.034751    0.000000
Sum of atomic charges         :   -1.0000000

LOEWDIN ATOMIC CHARGES AND SPIN POPULATIONS
-------------------------------------------
   0 Co:   -1.019945    0.906871
   1 C :   -0.074560   -0.000005
   2 C :   -0.052427    0.000015
   3 C :   -0.064838    0.000725
   4 C :   -0.054813    0.000231
   5 N :   -0.138179    0.005226
   6 C :    0.006427    0.003004
   7 N :    0.100822    0.000031
   8 H :    0.039683   -0.000004
   9 H :    0.035307    0.000022
  10 H :    0.040740    0.000307
  11 H :    0.041875    0.001282
  12 H :    0.124234    0.000052
  13 C :   -0.070545   -0.000015
  14 C :   -0.049413   -0.000045
  15 C :   -0.022567   -0.000239
  16 C :   -0.024596    0.000146
  17 N :    0.117417    0.000743
  18 C :    0.059073    0.001029
  19 N :    0.116843   -0.004731
  20 H :    0.048001   -0.000031
  21 H :    0.052808   -0.000002
  22 H :    0.129302   -0.000021
  23 H :    0.037595    0.000081
  24 H :    0.047831    0.000094
  25 O :   -0.071579   -0.006995
  26 O :   -0.067165    0.000322
  27 O :   -0.071844   -0.007731
  28 N :    0.063753    0.097343
  29 O :   -0.317123   -0.002952
  30 O :   -0.330030   -0.001937
  31 O :   -0.318436   -0.002792
  32 C :    0.040560    0.002643
  33 C :    0.044679    0.001452
  34 C :    0.041229    0.001472
  35 C :    0.023389   -0.001142
  36 H :    0.062891   -0.000049
  37 H :    0.033215    0.002155
  38 C :    0.022689   -0.001044
  39 H :    0.034341    0.002028
  40 H :    0.062274   -0.000032
  41 C :    0.015850   -0.000028
  42 H :    0.058886    0.000844
  43 H :    0.051248    0.001678
  44 H :    0.033657   -0.000007
  45 H :    0.040004   -0.000001
  46 H :    0.032129   -0.000003
  47 H :    0.029501    0.000011
  48 H :    0.031053   -0.000001
  49 H :    0.028755    0.000000

  Mayer bond orders larger than 0.100000
B(  0-Co,  5-N ) :   0.1394 B(  0-Co, 19-N ) :   0.5814 B(  0-Co, 25-O ) :   0.6984
B(  0-Co, 26-O ) :   0.7442 B(  0-Co, 27-O ) :   0.6728 B(  0-Co, 28-N ) :   0.4224
B(  1-C ,  2-C ) :   1.1153 B(  1-C , 47-H ) :   0.9648 B(  1-C , 48-H ) :   0.9610
B(  1-C , 49-H ) :   0.9682 B(  2-C ,  3-C ) :   1.0701 B(  2-C ,  8-H ) :   0.9189
B(  2-C ,  9-H ) :   0.9140 B(  3-C ,  4-C ) :   1.4623 B(  3-C ,  5-N ) :   1.3743
B(  4-C ,  7-N ) :   1.2154 B(  4-C , 10-H ) :   0.9887 B(  5-N ,  6-C ) :   1.4870
B(  6-C ,  7-N ) :   1.2865 B(  6-C , 11-H ) :   0.9376 B(  7-N , 12-H ) :   0.9094
B( 13-C , 14-C ) :   1.1180 B( 13-C , 44-H ) :   0.9681 B( 13-C , 45-H ) :   0.9586
B( 13-C , 46-H ) :   0.9670 B( 14-C , 15-C ) :   1.0534 B( 14-C , 20-H ) :   0.9142
B( 14-C , 21-H ) :   0.9187 B( 15-C , 16-C ) :   1.4715 B( 15-C , 17-N ) :   1.2318
B( 16-C , 19-N ) :   1.2435 B( 16-C , 23-H ) :   0.9863 B( 17-N , 18-C ) :   1.2860
B( 17-N , 22-H ) :   0.9053 B( 18-C , 19-N ) :   1.4130 B( 18-C , 24-H ) :   0.9519
B( 25-O , 31-O ) :   0.1075 B( 25-O , 33-C ) :   1.3744 B( 26-O , 30-O ) :   0.1069
B( 26-O , 32-C ) :   1.3693 B( 27-O , 29-O ) :   0.1085 B( 27-O , 34-C ) :   1.3741
B( 28-N , 35-C ) :   0.9396 B( 28-N , 38-C ) :   0.9446 B( 28-N , 41-C ) :   0.9278
B( 29-O , 34-C ) :   1.9456 B( 30-O , 32-C ) :   1.9344 B( 31-O , 33-C ) :   1.9515
B( 32-C , 41-C ) :   0.9239 B( 33-C , 35-C ) :   0.9266 B( 34-C , 38-C ) :   0.9343
B( 35-C , 36-H ) :   0.9081 B( 35-C , 37-H ) :   0.9239 B( 38-C , 39-H ) :   0.9223
B( 38-C , 40-H ) :   0.9054 B( 41-C , 42-H ) :   0.9185 B( 41-C , 43-H ) :   0.9194

Dispersion correction           -0.105686902
FINAL SINGLE POINT ENERGY     -2730.580663308567

DIPOLE MOMENT
-------------
                                X             Y             Z
Electronic contribution:    -10.52957       7.31110     -28.96389
Nuclear contribution   :     10.46310     -15.26145      34.90265
                        -----------------------------------------
Total Dipole Moment    :     -0.06647      -7.95035       5.93876
                        -----------------------------------------
Magnitude (a.u.)       :      9.92377
Magnitude (Debye)      :     25.22423

Rotational constants in cm-1:     0.006663     0.004317     0.003781
Rotational constants in MHz :   199.754999   129.424645   113.352027

                             ****ORCA TERMINATED NORMALLY****
TOTAL RUN TIME: 0 days 3 hours 52 minutes 46 seconds 248 msec
